 Q-Chem 4.3, Q-Chem, Inc., Pleasanton, CA (2015)
 Q-Chem 4.3.0 for Intel X86 Linux

User input:
--------------------------------------------------------------
$comment
job3 - cvs-adc(2)-x calculation with mom to prevent collapse to ground state
$end

$molecule
1 2
C    -0.69934   2.34967   0.00000
F     0.60215   2.34967  -0.00000
F    -1.13316   3.29245   0.78541
F    -1.13317   1.19810   0.42375
F    -1.13317   2.55847  -1.20916
$end

$rem
mem_total 3000
mem_static 1500
sym_ignore true
method cvs-adc(2)-x
basis 6-31G*
ee_singlets 30
cc_rest_occ 5                  !only excitations from the 5th orbital (C 1s)
unrestricted  true
max_scf_cycles 200
$end

--------------------------------------------------------------

             Standard Nuclear Orientation (Angstroms)
    I     Atom           X                Y                Z
 ----------------------------------------------------------------
    1      C      -0.6993400000     2.3496700000     0.0000000000
    2      F       0.6021500000     2.3496700000     0.0000000000
    3      F      -1.1331600000     3.2924500000     0.7854100000
    4      F      -1.1331700000     1.1981000000     0.4237500000
    5      F      -1.1331700000     2.5584700000    -1.2091600000
 ----------------------------------------------------------------

   48    -435.0110085298      7.48E-09 Convergence criterion met
 Total energy in the final basis set = -435.0110085298
  Term symbol:  2 (-) A                                     R^2 =  4.53420e-13
  Excitation energy:                                             287.150720 eV
  Term symbol:  3 (-) A                                     R^2 =  2.61206e-13
  Excitation energy:                                             298.824034 eV
  Term symbol:  4 (-) A                                     R^2 =  3.28310e-13
  Excitation energy:                                             298.824136 eV
  Term symbol:  5 (-) A                                     R^2 =  2.59442e-13
  Excitation energy:                                             298.833999 eV
  Term symbol:  6 (-) A                                     R^2 =  1.33421e-13
  Excitation energy:                                             299.324428 eV
  Term symbol:  7 (-) A                                     R^2 =  1.79697e-13
  Excitation energy:                                             300.975108 eV
  Term symbol:  8 (-) A                                     R^2 =  1.24305e-13
  Excitation energy:                                             300.975205 eV
  Term symbol:  9 (-) A                                     R^2 =  1.02145e-13
  Excitation energy:                                             300.992911 eV
  Term symbol:  10 (-) A                                    R^2 =  2.00855e-13
  Excitation energy:                                             301.775827 eV
  Excited state 10 (A)                                             [converged]
  Term symbol:  11 (-) A                                    R^2 =  5.04051e-13
  Excitation energy:                                             302.180835 eV
  Excited state 11 (A)                                             [converged]
  Term symbol:  12 (-) A                                    R^2 =  2.78124e-13
  Excitation energy:                                             302.227453 eV
  Excited state 12 (A)                                             [converged]
  Term symbol:  13 (-) A                                    R^2 =  2.67299e-13
  Excitation energy:                                             302.237449 eV
  Excited state 13 (A)                                             [converged]
  Term symbol:  14 (-) A                                    R^2 =  2.11485e-13
  Excitation energy:                                             302.237707 eV
  Excited state 14 (A)                                             [converged]
  Term symbol:  15 (-) A                                    R^2 =  4.55012e-13
  Excitation energy:                                             302.855679 eV
  Excited state 15 (A)                                             [converged]
  Term symbol:  16 (-) A                                    R^2 =  4.75659e-13
  Excitation energy:                                             302.926504 eV
  Excited state 16 (A)                                             [converged]
  Term symbol:  17 (-) A                                    R^2 =  1.12032e-12
  Excitation energy:                                             302.926592 eV
  Excited state 17 (A)                                             [converged]
  Excitation energy:                                             302.929541 eV
  Excited state 18 (A)                                             [converged]
  Term symbol:  19 (-) A                                    R^2 =  1.06351e-11
  Excitation energy:                                             302.978697 eV
  Excited state 19 (A)                                             [converged]
  Term symbol:  20 (-) A                                    R^2 =  2.77030e-12
  Excitation energy:                                             303.031139 eV
  Excited state 20 (A)                                             [converged]
  Term symbol:  21 (-) A                                    R^2 =  2.73235e-12
  Excitation energy:                                             303.031240 eV
  Excited state 21 (A)                                             [converged]
  Term symbol:  22 (-) A                                    R^2 =  1.30614e-12
  Excitation energy:                                             303.186345 eV
  Excited state 22 (A)                                             [converged]
  Term symbol:  23 (-) A                                    R^2 =  5.02639e-12
  Excitation energy:                                             303.274703 eV
  Excited state 23 (A)                                             [converged]
  Term symbol:  24 (-) A                                    R^2 =  2.74643e-11
  Excitation energy:                                             303.408942 eV
  Excited state 24 (A)                                             [converged]
  Term symbol:  25 (-) A                                    R^2 =  3.01047e-11
  Excitation energy:                                             303.409113 eV
  Excited state 25 (A)                                             [converged]
  Term symbol:  26 (-) A                                    R^2 =  8.39412e-08
  Excitation energy:                                             304.184303 eV
  Excited state 26 (A)                                             [converged]
  Term symbol:  27 (-) A                                    R^2 =  2.73915e-09
  Excitation energy:                                             304.290067 eV
  Excited state 27 (A)                                             [converged]
  Term symbol:  28 (-) A                                    R^2 =  1.21150e-07
  Excitation energy:                                             304.448172 eV
  Excited state 28 (A)                                         [not converged]
  Term symbol:  29 (-) A                                    R^2 =  6.25573e-05
  Excitation energy:                                             304.862839 eV
  Excited state 29 (A)                                         [not converged]
  Term symbol:  30 (-) A                                    R^2 =  7.19122e-05
  Excitation energy:                                             304.863026 eV
  Excited state 30 (A)                                         [not converged]
  Term symbol:  31 (-) A                                    R^2 =  5.41690e-04
  Excitation energy:                                             305.186824 eV

                    Orbital Energies (a.u.)
 --------------------------------------------------------------

 Alpha MOs
 -- Occupied --
-26.764 -26.764 -26.764 -26.763 -11.947  -2.177  -2.049  -2.049
 -2.048  -1.351  -1.245  -1.245  -1.237  -1.145  -1.112  -1.076
 -1.076  -1.067  -1.057  -1.036  -1.036

 Beta MOs
 -- Occupied --
-26.745 -26.745 -26.745 -26.745 -11.949  -2.139  -1.995  -1.994
 -1.994  -1.332  -1.223  -1.203  -1.203  -1.096  -1.043  -1.024
 -1.024  -0.943  -0.899  -0.899

          Ground-State Mulliken Net Atomic Charges

     Atom                 Charge (a.u.)    Spin (a.u.)
  --------------------------------------------------------
      1 C                     1.356921      -0.164289
      2 F                    -0.089227       0.291074
      3 F                    -0.089240       0.291065
      4 F                    -0.089230       0.291072
      5 F                    -0.089223       0.291078
  --------------------------------------------------------
  Sum of atomic charges =     1.000000

                    Cartesian Multipole Moments
 -----------------------------------------------------------------
    Charge (ESU x 10^10)
                 4.8032
    Dipole Moment (Debye)
         X      -3.3591      Y      11.2859      Z      -0.0001
       Tot      11.7752
    Quadrupole Moments (Debye-Ang)
        XX     -18.1705     XY      -7.9081     YY       6.0590
        XZ       0.0896     YZ       0.0214     ZZ     -20.5801

 Total job time:  5502.79s(wall), 9326.26s(cpu)
        *  Thank you very much for using Q-Chem.  Have a nice day.  *
