 Q-Chem 4.3, Q-Chem, Inc., Pleasanton, CA (2015)
 Q-Chem 4.3.0 for Intel X86 Linux

User input:
--------------------------------------------------------------
$comment
job3 - cvs-adc(2)-x calculation with mom to prevent collapse to ground state
$end

$molecule
1 2
C    -0.69934   2.34967   0.00000
F     0.60215   2.34967  -0.00000
F    -1.13316   3.29245   0.78541
F    -1.13317   1.19810   0.42375
F    -1.13317   2.55847  -1.20916
$end

$rem
mem_total 3000
mem_static 1500
sym_ignore true
method cvs-adc(1)
basis 6-31G*
ee_singlets 30
cc_rest_occ 5                  !only excitations from the 5th orbital (C 1s)
unrestricted  true
ADC_CVS true
max_scf_cycles 200
$end

--------------------------------------------------------------

             Standard Nuclear Orientation (Angstroms)
    I     Atom           X                Y                Z
 ----------------------------------------------------------------
    1      C      -0.6993400000     2.3496700000     0.0000000000
    2      F       0.6021500000     2.3496700000     0.0000000000
    3      F      -1.1331600000     3.2924500000     0.7854100000
    4      F      -1.1331700000     1.1981000000     0.4237500000
    5      F      -1.1331700000     2.5584700000    -1.2091600000
 ----------------------------------------------------------------

   48    -435.0110085298      7.48E-09 Convergence criterion met
 Total energy in the final basis set = -435.0110085298
  Term symbol:  2 (-) A                                     R^2 =  2.83054e-12
  Excitation energy:                                             298.423355 eV
  Term symbol:  3 (-) A                                     R^2 =  1.15377e-12
  Excitation energy:                                             304.418351 eV
  Term symbol:  4 (-) A                                     R^2 =  5.79027e-12
  Excitation energy:                                             304.499648 eV
  Term symbol:  5 (-) A                                     R^2 =  2.21044e-12
  Excitation energy:                                             304.499739 eV
  Term symbol:  6 (-) A                                     R^2 =  2.28448e-12
  Excitation energy:                                             306.937991 eV
  Term symbol:  7 (-) A                                     R^2 =  1.17707e-12
  Excitation energy:                                             307.092412 eV
  Term symbol:  8 (-) A                                     R^2 =  6.83961e-12
  Excitation energy:                                             307.092506 eV
  Term symbol:  9 (-) A                                     R^2 =  1.06394e-12
  Excitation energy:                                             307.996240 eV
  Term symbol:  10 (-) A                                    R^2 =  1.43576e-12
  Excitation energy:                                             311.857743 eV
  Excited state 10 (A)                                             [converged]
  Term symbol:  11 (-) A                                    R^2 =  1.29998e-12
  Excitation energy:                                             322.679372 eV
  Excited state 11 (A)                                             [converged]
  Term symbol:  12 (-) A                                    R^2 =  2.26296e-12
  Excitation energy:                                             323.086729 eV
  Excited state 12 (A)                                             [converged]
  Term symbol:  13 (-) A                                    R^2 =  9.42625e-11
  Excitation energy:                                             323.240379 eV
  Excited state 13 (A)                                             [converged]
  Term symbol:  14 (-) A                                    R^2 =  4.57397e-10
  Excitation energy:                                             323.240448 eV
  Excited state 14 (A)                                             [converged]
  Term symbol:  15 (-) A                                    R^2 =  8.40875e-12
  Excitation energy:                                             323.258654 eV
  Excited state 15 (A)                                             [converged]
  Term symbol:  16 (-) A                                    R^2 =  3.64047e-11
  Excitation energy:                                             323.562453 eV
  Excited state 16 (A)                                             [converged]
  Term symbol:  17 (-) A                                    R^2 =  1.24858e-09
  Excitation energy:                                             323.846771 eV
  Excited state 17 (A)                                             [converged]
  Excitation energy:                                             323.846850 eV
  Excited state 18 (A)                                             [converged]
  Term symbol:  19 (-) A                                    R^2 =  1.59803e-10
  Excitation energy:                                             337.351410 eV
  Excited state 19 (A)                                             [converged]
  Term symbol:  20 (-) A                                    R^2 =  2.74606e-10
  Excitation energy:                                             337.750371 eV
  Excited state 20 (A)                                             [converged]
  Term symbol:  21 (-) A                                    R^2 =  1.88313e-09
  Excitation energy:                                             337.862078 eV
  Excited state 21 (A)                                             [converged]
  Term symbol:  22 (-) A                                    R^2 =  1.70722e-08
  Excitation energy:                                             338.797190 eV
  Excited state 22 (A)                                             [converged]
  Term symbol:  23 (-) A                                    R^2 =  3.49726e-07
  Excitation energy:                                             342.811105 eV
  Excited state 23 (A)                                             [converged]
  Term symbol:  24 (-) A                                    R^2 =  2.92604e-07
  Excitation energy:                                             342.811177 eV
  Excited state 24 (A)                                             [converged]
  Term symbol:  25 (-) A                                    R^2 =  2.27361e-08
  Excitation energy:                                             342.827939 eV
  Excited state 25 (A)                                             [converged]
  Term symbol:  26 (-) A                                    R^2 =  3.91463e-08
  Excitation energy:                                             343.139242 eV
  Excited state 26 (A)                                             [converged]
  Term symbol:  27 (-) A                                    R^2 =  7.64191e-07
  Excitation energy:                                             343.162206 eV
  Excited state 27 (A)                                             [converged]
  Term symbol:  28 (-) A                                    R^2 =  4.59874e-07
  Excitation energy:                                             343.162278 eV
  Excited state 28 (A)                                             [converged]
  Term symbol:  29 (-) A                                    R^2 =  5.67342e-10
  Excitation energy:                                             346.751006 eV
  Excited state 29 (A)                                             [converged]
  Term symbol:  30 (-) A                                    R^2 =  4.39957e-08
  Excitation energy:                                             346.962486 eV
  Excited state 30 (A)                                             [converged]
  Term symbol:  31 (-) A                                    R^2 =  1.76232e-08
  Excitation energy:                                             347.027811 eV

                    Orbital Energies (a.u.)
 --------------------------------------------------------------

 Alpha MOs
 -- Occupied --
-26.764 -26.764 -26.764 -26.763 -11.947  -2.177  -2.049  -2.049
 -2.048  -1.351  -1.245  -1.245  -1.237  -1.145  -1.112  -1.076
 -1.076  -1.067  -1.057  -1.036  -1.036

 Beta MOs
 -- Occupied --
-26.745 -26.745 -26.745 -26.745 -11.949  -2.139  -1.995  -1.994
 -1.994  -1.332  -1.223  -1.203  -1.203  -1.096  -1.043  -1.024
 -1.024  -0.943  -0.899  -0.899

          Ground-State Mulliken Net Atomic Charges

     Atom                 Charge (a.u.)    Spin (a.u.)
  --------------------------------------------------------
      1 C                     1.356921      -0.164289
      2 F                    -0.089227       0.291074
      3 F                    -0.089240       0.291065
      4 F                    -0.089230       0.291072
      5 F                    -0.089223       0.291078
  --------------------------------------------------------
  Sum of atomic charges =     1.000000

                    Cartesian Multipole Moments
 -----------------------------------------------------------------
    Charge (ESU x 10^10)
                 4.8032
    Dipole Moment (Debye)
         X      -3.3591      Y      11.2859      Z      -0.0001
       Tot      11.7752
    Quadrupole Moments (Debye-Ang)
        XX     -18.1705     XY      -7.9081     YY       6.0590
        XZ       0.0896     YZ       0.0214     ZZ     -20.5801

 Total job time:  49.93s(wall), 42.36s(cpu)
        *  Thank you very much for using Q-Chem.  Have a nice day.  *
