 Q-Chem 4.3, Q-Chem, Inc., Pleasanton, CA (2015)
 Q-Chem 4.3.0 for Intel X86 Linux

User input:
--------------------------------------------------------------
$comment
job3 - cvs-adc(2)-x calculation with mom to prevent collapse to ground state
$end

$molecule
0 1
C    -0.69934   2.34967   0.00000
F     0.60215   2.34967  -0.00000
F    -1.13316   3.29245   0.78541
F    -1.13317   1.19810   0.42375
F    -1.13317   2.55847  -1.20916
$end

$rem
mem_total 3000
mem_static 1500
sym_ignore true
method cvs-adc(2)-x
basis 6-31G*
ee_singlets 30
cc_rest_occ 1                  !only excitations from the 1st orbital (C 1s)
unrestricted  true
max_scf_cycles 200
$end

--------------------------------------------------------------

             Standard Nuclear Orientation (Angstroms)
    I     Atom           X                Y                Z
 ----------------------------------------------------------------
    1      C      -0.6993400000     2.3496700000     0.0000000000
    2      F       0.6021500000     2.3496700000     0.0000000000
    3      F      -1.1331600000     3.2924500000     0.7854100000
    4      F      -1.1331700000     1.1981000000     0.4237500000
    5      F      -1.1331700000     2.5584700000    -1.2091600000
 ----------------------------------------------------------------

   12    -435.6452068527      1.94E-09 Convergence criterion met
 Total energy in the final basis set = -435.6452068527
  Term symbol:  2 (-) A                                     R^2 =  2.42495e-13
  Excitation energy:                                             703.920300 eV
  Term symbol:  3 (-) A                                     R^2 =  2.34759e-13
  Excitation energy:                                             704.924378 eV
  Term symbol:  4 (-) A                                     R^2 =  3.89589e-13
  Excitation energy:                                             705.769884 eV
  Term symbol:  5 (-) A                                     R^2 =  2.95427e-13
  Excitation energy:                                             705.912782 eV
  Term symbol:  6 (-) A                                     R^2 =  2.57257e-13
  Excitation energy:                                             706.038548 eV
  Term symbol:  7 (-) A                                     R^2 =  4.28421e-13
  Excitation energy:                                             706.107299 eV
  Term symbol:  8 (-) A                                     R^2 =  8.20781e-13
  Excitation energy:                                             707.068849 eV
  Term symbol:  9 (-) A                                     R^2 =  2.73200e-13
  Excitation energy:                                             707.229315 eV
  Term symbol:  10 (-) A                                    R^2 =  9.80118e-13
  Excitation energy:                                             712.643380 eV
  Excited state 10 (A)                                             [converged]
  Term symbol:  11 (-) A                                    R^2 =  1.06046e-12
  Excitation energy:                                             712.871921 eV
  Excited state 11 (A)                                             [converged]
  Term symbol:  12 (-) A                                    R^2 =  5.60962e-13
  Excitation energy:                                             713.699056 eV
  Excited state 12 (A)                                             [converged]
  Term symbol:  13 (-) A                                    R^2 =  9.28499e-13
  Excitation energy:                                             713.726933 eV
  Excited state 13 (A)                                             [converged]
  Term symbol:  14 (-) A                                    R^2 =  4.90046e-13
  Excitation energy:                                             713.809392 eV
  Excited state 14 (A)                                             [converged]
  Term symbol:  15 (-) A                                    R^2 =  1.01364e-12
  Excitation energy:                                             713.818832 eV
  Excited state 15 (A)                                             [converged]
  Term symbol:  16 (-) A                                    R^2 =  1.48498e-12
  Excitation energy:                                             714.619892 eV
  Excited state 16 (A)                                             [converged]
  Term symbol:  17 (-) A                                    R^2 =  1.50831e-12
  Excitation energy:                                             714.664908 eV
  Excited state 17 (A)                                         [not converged]
  Excitation energy:                                             728.072636 eV
  Excited state 18 (A)                                         [not converged]
  Term symbol:  19 (-) A                                    R^2 =  1.20739e-06
  Excitation energy:                                             728.093459 eV
  Excited state 19 (A)                                             [converged]
  Term symbol:  20 (-) A                                    R^2 =  2.86961e-07
  Excitation energy:                                             728.325582 eV
  Excited state 20 (A)                                         [not converged]
  Term symbol:  21 (-) A                                    R^2 =  1.96758e-05
  Excitation energy:                                             728.712060 eV
  Excited state 21 (A)                                         [not converged]
  Term symbol:  22 (-) A                                    R^2 =  1.68324e-05
  Excitation energy:                                             728.772863 eV
  Excited state 22 (A)                                         [not converged]
  Term symbol:  23 (-) A                                    R^2 =  7.57935e-06
  Excitation energy:                                             728.866719 eV
  Excited state 23 (A)                                         [not converged]
  Term symbol:  24 (-) A                                    R^2 =  5.16039e-06
  Excitation energy:                                             728.895708 eV
  Excited state 24 (A)                                         [not converged]
  Term symbol:  25 (-) A                                    R^2 =  1.47942e-06
  Excitation energy:                                             728.906866 eV
  Excited state 25 (A)                                         [not converged]
  Term symbol:  26 (-) A                                    R^2 =  3.58828e-05
  Excitation energy:                                             728.933786 eV
  Excited state 26 (A)                                         [not converged]
  Term symbol:  27 (-) A                                    R^2 =  5.66047e-06
  Excitation energy:                                             729.169229 eV
  Excited state 27 (A)                                         [not converged]
  Term symbol:  28 (-) A                                    R^2 =  7.08233e-05
  Excitation energy:                                             729.270083 eV
  Excited state 28 (A)                                         [not converged]
  Term symbol:  29 (-) A                                    R^2 =  1.36026e-04
  Excitation energy:                                             729.368084 eV
  Excited state 29 (A)                                         [not converged]
  Term symbol:  30 (-) A                                    R^2 =  1.11468e-04
  Excitation energy:                                             729.390198 eV
  Excited state 30 (A)                                         [not converged]
  Term symbol:  31 (-) A                                    R^2 =  4.32921e-03
  Excitation energy:                                             729.750684 eV

                    Orbital Energies (a.u.)
 --------------------------------------------------------------

 Alpha MOs
 -- Occupied --
-26.374 -26.374 -26.374 -26.374 -11.605  -1.813  -1.679  -1.679
 -1.679  -1.005  -0.890  -0.890  -0.890  -0.759  -0.759  -0.705
 -0.705  -0.705  -0.673  -0.673  -0.673

 Beta MOs
 -- Occupied --
-26.374 -26.374 -26.374 -26.374 -11.605  -1.813  -1.679  -1.679
 -1.679  -1.005  -0.890  -0.890  -0.890  -0.759  -0.759  -0.705
 -0.705  -0.705  -0.673  -0.673  -0.673

          Ground-State Mulliken Net Atomic Charges

     Atom                 Charge (a.u.)    Spin (a.u.)
  --------------------------------------------------------
      1 C                     1.312620       0.000000
      2 F                    -0.328153       0.000000
      3 F                    -0.328161       0.000000
      4 F                    -0.328155       0.000000
      5 F                    -0.328151       0.000000
  --------------------------------------------------------
  Sum of atomic charges =     0.000000

                    Cartesian Multipole Moments
 -----------------------------------------------------------------
    Charge (ESU x 10^10)
                 0.0000
    Dipole Moment (Debye)
         X       0.0000      Y       0.0000      Z       0.0000
       Tot       0.0000
    Quadrupole Moments (Debye-Ang)
        XX     -24.9359     XY       0.0000     YY     -24.9360
        XZ       0.0000     YZ      -0.0001     ZZ     -24.9359

 Total job time:  1370.42s(wall), 3520.86s(cpu)
        *  Thank you very much for using Q-Chem.  Have a nice day.  *
