 Gaussian 09, Revision D.01,
 Gaussian 09:  ES64L-G09RevD.01 24-Apr-2013

 ------------------------------------------
 #P UHF/6-31g* IOP(7/33=1) IOP(7/8=11) Freq
 ------------------------------------------

 -----------------
 Distorted Ethanol
 -----------------
 Symbolic Z-matrix:
 Charge =  1 Multiplicity = 2

                         Standard orientation:
 ---------------------------------------------------------------------
 Center     Atomic      Atomic             Coordinates (Angstroms)
 Number     Number       Type             X           Y           Z
 ---------------------------------------------------------------------
      1          6           0        2.791977   -0.069356    0.019910
      2          9           0        2.799538    1.180932   -0.365875
      3          9           0        2.878921   -0.883646   -0.788216
      4          9           0      -10.813093   -0.013399    0.033921
      5          9           0        3.273316   -0.237651    1.106897
 ---------------------------------------------------------------------

 SCF Done:  E(UHF) =  -435.137081582     A.U. after   99 cycles

 The electronic state is 2-A.
 Alpha  occ. eigenvalues --  -26.78295 -26.75412 -26.71024 -26.44012 -11.95699
 Alpha  occ. eigenvalues --   -2.20850  -2.10130  -2.00706  -1.69395  -1.34003
 Alpha  occ. eigenvalues --   -1.25847  -1.24218  -1.20691  -1.08355  -1.06363
 Alpha  occ. eigenvalues --   -1.05968  -1.01706  -1.00781  -0.86222  -0.75427
 Alpha  occ. eigenvalues --   -0.75427
 Alpha virt. eigenvalues --   -0.24447   0.05658   0.15194   0.19286   0.32714
 Alpha virt. eigenvalues --    0.35248   0.43161   0.48748   0.97361   1.00220
 Alpha virt. eigenvalues --    1.02892   1.04391   1.08629   1.10190   1.26233

  Beta  occ. eigenvalues --  -26.78295 -26.75412 -26.71024 -26.39238 -11.95699
  Beta  occ. eigenvalues --   -2.20850  -2.10130  -2.00706  -1.50204  -1.34003
  Beta  occ. eigenvalues --   -1.25847  -1.24218  -1.20691  -1.08355  -1.06363
  Beta  occ. eigenvalues --   -1.05968  -1.01706  -1.00781  -0.70262  -0.70262
  Beta virt. eigenvalues --   -0.24447   0.05458   0.05658   0.15194   0.19286
  Beta virt. eigenvalues --    0.32714   0.35248   0.43161   0.48748   0.97361
  Beta virt. eigenvalues --    1.00220   1.04391   1.06123   1.08629   1.10190

 Mulliken charges and spin densities:
               1          2
     1  C    1.211178   0.000000
     2  F   -0.169651   0.000000
     3  F    0.014239   0.000000
     4  F    0.000000   1.000000
     5  F   -0.055765   0.000000
 Sum of Mulliken charges =   1.00000   1.00000

 Dipole moment (field-independent basis, Debye):
    X=             13.1971    Y=             -0.9363    Z=              0.0990  Tot=             13.2307
 Quadrupole moment (field-independent basis, Debye-Ang):
   XX=             16.6814   YY=            -21.1987   ZZ=            -20.9193
   XY=             -2.5143   XZ=              0.1728   YZ=              0.2445

  Exact polarizability:   9.044  -0.197  12.838   0.843  -0.107  12.085
 Approx polarizability:   8.925  -0.077  11.933   0.671  -0.054  11.305

 ******    1 imaginary frequencies (negative Signs) ******

                      1                      2                      3
                      A                      A                      A
 Frequencies --   -236.0424                 1.0576                99.8648
 Red. masses --     18.8522                18.5913                18.8544
 Frc consts  --      0.6189                 0.0000                 0.1108
 IR Inten    --      0.8930                 3.0565                 0.6507
 Raman Activ --      0.1541                 0.0000                 0.1827

                      4                      5                      6
                      A                      A                      A
 Frequencies --    604.8212               639.4537               820.4620
 Red. masses --     18.0732                18.1169                13.2891
 Frc consts  --      3.8953                 4.3647                 5.2706
 IR Inten    --     18.3669                17.4864               103.9982
 Raman Activ --      0.7136                 0.7689                 0.4668

                      7                      8                      9
                      A                      A                      A
 Frequencies --   1062.4194              1666.3510              2175.9119
 Red. masses --     16.8030                13.9800                13.4219
 Frc consts  --     11.1745                22.8713                37.4409
 IR Inten    --     96.9562               399.2803               546.5110
 Raman Activ --      4.1692                 0.9213                 0.3034

 - Thermochemistry -
 -------------------
 Temperature   298.150 Kelvin.  Pressure   1.00000 Atm.
 Atom     1 has atomic number  6 and mass  12.00000

 Molecular mass:    87.99361 amu.
 Principal axes and moments of inertia in atomic units:
                           1         2         3
     Eigenvalues --   286.09336********************
           X            1.00000  -0.00005   0.00001
           Y            0.00005   1.00000  -0.00019
           Z           -0.00001   0.00019   1.00000
 This molecule is an asymmetric top.
 Rotational symmetry number  1.
 Rotational temperatures (Kelvin)      0.30275     0.00847     0.00846
 Rotational constants (GHZ):           6.30822     0.17656     0.17626
    1 imaginary frequencies ignored.
 Zero-point vibrational energy      42290.0 (Joules/Mol)
                                   10.10756 (Kcal/Mol)
 Warning -- explicit consideration of   3 degrees of freedom as
           vibrations may cause significant error
 Vibrational temperatures:      1.52   143.68   870.20   920.03  1180.46
          (Kelvin)           1528.58  2397.50  3130.65

 Zero-point correction=                           0.016107 (Hartree/Particle)
 Thermal correction to Energy=                    0.021018
 Thermal correction to Enthalpy=                  0.021962
 Thermal correction to Gibbs Free Energy=        -0.020570
 Sum of electronic and zero-point Energies=           -435.120974
 Sum of electronic and thermal Energies=              -435.116064
 Sum of electronic and thermal Enthalpies=            -435.115120
 Sum of electronic and thermal Free Energies=         -435.157652

                     E (Thermal)             CV                S
                      KCal/Mol        Cal/Mol-Kelvin    Cal/Mol-Kelvin
 Total                   13.189             12.848             89.516
 Electronic               0.000              0.000              1.377
 Translational            0.889              2.981             39.337
 Rotational               0.889              2.981             31.771
 Vibrational             11.411              6.886             17.031
 Vibration     1          0.592              1.987             12.475
 Vibration     2          0.604              1.949              3.457
 Vibration     3          0.963              1.022              0.441

 1\1\GINC-TP-LINUX1\Freq\UHF\6-31G(d)\C1F4(1+,2)\THOMAS\04-Mar-2017\0\\
 #P UHF/6-31g* IOP(7/33=1) IOP(7/8=11) Freq\\Distorted Ethanol\\1,2\C,0
 .09988,4.840925,-0.98272\F,1.351173,4.472105,-0.880999\F,-0.36407,5.42
 2303,-0.10497\F,-3.89207,-7.344224,3.565658\F,-0.241667,5.068608,-2.11
 1018\\Version=ES64L-G09RevD.01\State=2-A\HF=-435.1370816\S2=0.752672\S
 2-1=0.\S2A=0.750003\RMSD=1.510e-10\RMSF=6.699e-02\ZeroPoint=0.0161074\
 Thermal=0.0210178\Dipole=1.1959753,4.7698498,-1.7069725\DipoleDeriv=2.
 1416484,-0.4540629,0.0298921,-0.4932436,1.5381717,0.1829318,0.0356998,

 Normal termination of Gaussian 09 at Sat Mar  4 13:29:33 2017.
