 Gaussian 09, Revision D.01,
 Gaussian 09:  ES64L-G09RevD.01 24-Apr-2013

 ------------------------------------------
 #P UHF/6-31g* IOP(7/33=1) IOP(7/8=11) Freq
 ------------------------------------------

 -----------------
 Distorted Ethanol
 -----------------
 Symbolic Z-matrix:
 Charge =  1 Multiplicity = 2

                         Standard orientation:
 ---------------------------------------------------------------------
 Center     Atomic      Atomic             Coordinates (Angstroms)
 Number     Number       Type             X           Y           Z
 ---------------------------------------------------------------------
      1          6           0       -2.915502    0.014263   -0.262722
      2          9           0       -2.040070   -0.484312    0.550095
      3          9           0       -3.941981   -0.689071   -0.343488
      4          9           0       11.080671   -0.000326   -0.059125
      5          9           0       -3.154952    1.164201    0.027666
 ---------------------------------------------------------------------

 SCF Done:  E(UHF) =  -435.100820866     A.U. after   14 cycles

 The electronic state is 2-A.
 Alpha  occ. eigenvalues --  -26.75644 -26.74516 -26.72450 -26.43890 -11.96877
 Alpha  occ. eigenvalues --   -2.16634  -2.05456  -2.01580  -1.69272  -1.32540
 Alpha  occ. eigenvalues --   -1.22714  -1.22077  -1.17622  -1.06732  -1.05731
 Alpha  occ. eigenvalues --   -1.03408  -1.01760  -1.00816  -0.86095  -0.75307
 Alpha  occ. eigenvalues --   -0.75304
 Alpha virt. eigenvalues --   -0.32510   0.09617   0.11811   0.15098   0.32216
 Alpha virt. eigenvalues --    0.35771   0.39098   0.42746   1.00135   1.01728
 Alpha virt. eigenvalues --    1.03016   1.03641   1.04574   1.05890   1.26494

  Beta  occ. eigenvalues --  -26.75644 -26.74516 -26.72450 -26.39115 -11.96877
  Beta  occ. eigenvalues --   -2.16634  -2.05456  -2.01580  -1.50081  -1.32540
  Beta  occ. eigenvalues --   -1.22714  -1.22077  -1.17622  -1.06732  -1.05731
  Beta  occ. eigenvalues --   -1.03408  -1.01760  -1.00816  -0.70143  -0.70139
  Beta virt. eigenvalues --   -0.32510   0.05588   0.09617   0.11811   0.15098
  Beta virt. eigenvalues --    0.32216   0.35771   0.39098   0.42746   1.00135
  Beta virt. eigenvalues --    1.01728   1.03641   1.04574   1.05890   1.06246

 Mulliken charges and spin densities:
               1          2
     1  C    1.273589   0.000000
     2  F   -0.136081   0.000000
     3  F   -0.089640   0.000000
     4  F    0.000000   1.000000
     5  F   -0.047868   0.000000
 Sum of Mulliken charges =   1.00000   1.00000

 Dipole moment (field-independent basis, Debye):
    X=            -13.9724    Y=              0.2534    Z=             -1.7493  Tot=             14.0838
 Quadrupole moment (field-independent basis, Debye-Ang):
   XX=             19.5630   YY=            -20.4876   ZZ=            -19.9783
   XY=             -0.6884   XZ=              4.7273   YZ=             -0.3157

  Exact polarizability:  12.461   0.031  12.838   1.460  -0.183  10.408
 Approx polarizability:  11.664   0.064  11.914   0.974  -0.172  10.478

 ******    2 imaginary frequencies (negative Signs) ******

                      1                      2                      3
                      A                      A                      A
 Frequencies --    -74.0279                -0.7748               163.7947
 Red. masses --     18.9107                18.5912                18.8865
 Frc consts  --      0.0611                 0.0000                 0.2985
 IR Inten    --      0.4100                 3.0557                 0.2268
 Raman Activ --      0.0447                 0.0000                 0.1867

                      4                      5                      6
                      A                      A                      A
 Frequencies --    633.8557               658.1957               852.3019
 Red. masses --     18.2328                18.2409                14.1078
 Frc consts  --      4.3160                 4.6559                 6.0380
 IR Inten    --     12.9471                14.1196                80.9718
 Raman Activ --      0.8488                 0.7569                 0.9577

                      7                      8                      9
                      A                      A                      A
 Frequencies --   1103.8267              1505.4375              1762.9783
 Red. masses --     16.2602                13.4346                13.4224
 Frc consts  --     11.6729                17.9391                24.5795
 IR Inten    --     67.1659               403.1093               463.5625
 Raman Activ --      6.0228                 1.5626                 1.1027

 - Thermochemistry -
 -------------------
 Temperature   298.150 Kelvin.  Pressure   1.00000 Atm.
 Atom     1 has atomic number  6 and mass  12.00000

 Molecular mass:    87.99361 amu.
 Principal axes and moments of inertia in atomic units:
                           1         2         3
     Eigenvalues --   171.87005********************
           X            1.00000  -0.00001   0.00017
           Y            0.00001   1.00000  -0.00008
           Z           -0.00017   0.00008   1.00000
 This molecule is an asymmetric top.
 Rotational symmetry number  1.
 Rotational temperatures (Kelvin)      0.50395     0.00807     0.00799
 Rotational constants (GHZ):          10.50061     0.16807     0.16639
    2 imaginary frequencies ignored.
 Zero-point vibrational energy      39957.6 (Joules/Mol)
                                    9.55010 (Kcal/Mol)
 Warning -- explicit consideration of   1 degrees of freedom as
           vibrations may cause significant error
 Vibrational temperatures:    235.66   911.98   947.00  1226.27  1588.16
          (Kelvin)           2165.99  2536.53

 Zero-point correction=                           0.015219 (Hartree/Particle)
 Thermal correction to Energy=                    0.019040
 Thermal correction to Enthalpy=                  0.019984
 Thermal correction to Gibbs Free Energy=        -0.015932
 Sum of electronic and zero-point Energies=           -435.085602
 Sum of electronic and thermal Energies=              -435.081781
 Sum of electronic and thermal Enthalpies=            -435.080837
 Sum of electronic and thermal Free Energies=         -435.116753

                     E (Thermal)             CV                S
                      KCal/Mol        Cal/Mol-Kelvin    Cal/Mol-Kelvin
 Total                   11.948             10.668             75.591
 Electronic               0.000              0.000              1.377
 Translational            0.889              2.981             39.337
 Rotational               0.889              2.981             31.371
 Vibrational             10.170              4.707              3.506
 Vibration     1          0.623              1.887              2.506

 1\1\GINC-TP-LINUX1\Freq\UHF\6-31G(d)\C1F4(1+,2)\THOMAS\04-Mar-2017\0\\
 #P UHF/6-31g* IOP(7/33=1) IOP(7/8=11) Freq\\Distorted Ethanol\\1,2\C,-
 0.262606,5.185948,-0.82947\F,0.476756,4.230303,-0.365017\F,0.163794,6.
 313275,-0.509818\F,-3.032788,-7.784671,3.645309\F,-0.413333,5.061316,-
 2.023525\\Version=ES64L-G09RevD.01\State=2-A\HF=-435.1008209\S2=0.7526
 73\S2-1=0.\S2A=0.750003\RMSD=9.941e-09\RMSF=6.525e-02\ZeroPoint=0.0152
 19\Thermal=0.0190398\Dipole=0.5080254,5.2667628,-1.644862\DipoleDeriv=
 1.4141452,-0.0554039,0.3952392,-0.0707035,2.2836191,0.0758045,0.420553

 Normal termination of Gaussian 09 at Sat Mar  4 13:45:52 2017.
