 Gaussian 09, Revision D.01,
 Gaussian 09:  ES64L-G09RevD.01 24-Apr-2013

 ------------------------------------------
 #P UHF/6-31g* IOP(7/33=1) IOP(7/8=11) Freq
 ------------------------------------------

 -----------------
 Distorted Ethanol
 -----------------
 Symbolic Z-matrix:
 Charge =  1 Multiplicity = 2

                         Standard orientation:
 ---------------------------------------------------------------------
 Center     Atomic      Atomic             Coordinates (Angstroms)
 Number     Number       Type             X           Y           Z
 ---------------------------------------------------------------------
      1          6           0        3.339397    0.019207    0.211116
      2          9           0        2.115771   -0.425894   -0.003115
      3          9           0        4.175965   -0.772812   -0.078904
      4          9           0      -11.882193   -0.006295   -0.004175
      5          9           0        3.364192    1.192196   -0.054550
 ---------------------------------------------------------------------

 SCF Done:  E(UHF) =  -435.122306256     A.U. after  127 cycles

 The electronic state is 2-A.
 Alpha  occ. eigenvalues --  -26.77701 -26.76328 -26.69828 -26.43553 -11.96423
 Alpha  occ. eigenvalues --   -2.18419  -2.10154  -1.99013  -1.68934  -1.33372
 Alpha  occ. eigenvalues --   -1.25382  -1.22656  -1.19306  -1.08991  -1.06410
 Alpha  occ. eigenvalues --   -1.04522  -1.00454  -0.99660  -0.85758  -0.74969
 Alpha  occ. eigenvalues --   -0.74967
 Alpha virt. eigenvalues --   -0.27847   0.08454   0.09709   0.18904   0.32662
 Alpha virt. eigenvalues --    0.34816   0.42394   0.45111   0.98439   0.99886
 Alpha virt. eigenvalues --    1.03354   1.05564   1.06833   1.08136   1.24846

  Beta  occ. eigenvalues --  -26.77701 -26.76328 -26.69828 -26.38778 -11.96423
  Beta  occ. eigenvalues --   -2.18419  -2.10154  -1.99013  -1.49743  -1.33372
  Beta  occ. eigenvalues --   -1.25382  -1.22656  -1.19306  -1.08991  -1.06410
  Beta  occ. eigenvalues --   -1.04522  -1.00454  -0.99660  -0.69805  -0.69802
  Beta virt. eigenvalues --   -0.27847   0.05925   0.08454   0.09709   0.18904
  Beta virt. eigenvalues --    0.32662   0.34816   0.42394   0.45111   0.98439
  Beta virt. eigenvalues --    0.99886   1.05564   1.06584   1.06833   1.08136

 Mulliken charges and spin densities:
               1          2
     1  C    1.246192   0.000001
     2  F   -0.176631  -0.000001
     3  F   -0.025062   0.000000
     4  F    0.000000   1.000000
     5  F   -0.044499   0.000000
 Sum of Mulliken charges =   1.00000   1.00000

 Dipole moment (field-independent basis, Debye):
    X=             16.6880    Y=              0.2358    Z=              1.3151  Tot=             16.7414
 Quadrupole moment (field-independent basis, Debye-Ang):
   XX=             36.5273   YY=            -20.4291   ZZ=            -19.8954
   XY=              0.4243   XZ=              4.4989   YZ=              0.4753

  Exact polarizability:  12.876  -0.188  12.898   0.136   0.167   9.038
 Approx polarizability:  11.927  -0.293  12.082   0.252   0.175   9.074

 ******    2 imaginary frequencies (negative Signs) ******

                      1                      2                      3
                      A                      A                      A
 Frequencies --    -86.4381                -0.6091                51.6086
 Red. masses --     18.9885                18.5912                18.8529
 Frc consts  --      0.0836                 0.0000                 0.0296
 IR Inten    --      0.0574                 3.0545                 0.4164
 Raman Activ --      0.0086                 0.0000                 0.1677

                      4                      5                      6
                      A                      A                      A
 Frequencies --    601.0685               668.3612               839.6661
 Red. masses --     18.1464                18.1597                13.5707
 Frc consts  --      3.8627                 4.7795                 5.6372
 IR Inten    --     14.0905                17.8106                96.5134
 Raman Activ --      0.7070                 0.8095                 0.6982

                      7                      8                      9
                      A                      A                      A
 Frequencies --   1051.5665              1560.0048              2003.5083
 Red. masses --     16.4297                14.0776                13.2990
 Frc consts  --     10.7042                20.1851                31.4523
 IR Inten    --    102.4994               366.9309               536.2697
 Raman Activ --      5.0115                 1.2031                 0.4582

 - Thermochemistry -
 -------------------
 Temperature   298.150 Kelvin.  Pressure   1.00000 Atm.
 Atom     1 has atomic number  6 and mass  12.00000

 Molecular mass:    87.99361 amu.
 Principal axes and moments of inertia in atomic units:
                           1         2         3
     Eigenvalues --   151.80835********************
           X            1.00000   0.00001   0.00014
           Y           -0.00001   1.00000   0.00007
           Z           -0.00014  -0.00007   1.00000
 This molecule is an asymmetric top.
 Rotational symmetry number  1.
 Rotational temperatures (Kelvin)      0.57055     0.00703     0.00695
 Rotational constants (GHZ):          11.88829     0.14656     0.14484
    2 imaginary frequencies ignored.
 Zero-point vibrational energy      40528.2 (Joules/Mol)
                                    9.68647 (Kcal/Mol)
 Warning -- explicit consideration of   2 degrees of freedom as
           vibrations may cause significant error
 Vibrational temperatures:     74.25   864.80   961.62  1208.09  1512.97
          (Kelvin)           2244.50  2882.60

 Zero-point correction=                           0.015436 (Hartree/Particle)
 Thermal correction to Energy=                    0.019488
 Thermal correction to Enthalpy=                  0.020432
 Thermal correction to Gibbs Free Energy=        -0.016651
 Sum of electronic and zero-point Energies=           -435.106870
 Sum of electronic and thermal Energies=              -435.102818
 Sum of electronic and thermal Enthalpies=            -435.101874
 Sum of electronic and thermal Free Energies=         -435.138957

                     E (Thermal)             CV                S
                      KCal/Mol        Cal/Mol-Kelvin    Cal/Mol-Kelvin
 Total                   12.229             10.843             78.048
 Electronic               0.000              0.000              1.377
 Translational            0.889              2.981             39.337
 Rotational               0.889              2.981             31.522
 Vibrational             10.452              4.882              5.812
 Vibration     1          0.596              1.977              4.755
 Vibration     2          0.959              1.030              0.448

 1\1\GINC-TP-LINUX1\Freq\UHF\6-31G(d)\C1F4(1+,2)\THOMAS\04-Mar-2017\0\\
 #P UHF/6-31g* IOP(7/33=1) IOP(7/8=11) Freq\\Distorted Ethanol\\1,2\C,-
 0.669327,5.616563,-0.843813\F,-0.477965,4.489836,-0.184164\F,-0.041261
 ,6.522709,-0.401451\F,-2.344015,-9.032749,2.942594\F,-0.789527,5.35246
 ,-2.011245\\Version=ES64L-G09RevD.01\State=2-A\HF=-435.1223063\S2=0.75
 2673\S2-1=0.\S2A=0.750003\RMSD=7.715e-09\RMSF=6.351e-02\ZeroPoint=0.01
 54364\Thermal=0.0194881\Dipole=0.2972812,6.3848733,-1.5899364\DipoleDe
 riv=1.4173102,0.3362266,0.2830657,0.2979648,2.3180469,0.0248503,0.3059

 Normal termination of Gaussian 09 at Sat Mar  4 13:42:33 2017.
