 Gaussian 09, Revision D.01,
 Gaussian 09:  ES64L-G09RevD.01 24-Apr-2013

 ------------------------------------------
 #P UHF/6-31g* IOP(7/33=1) IOP(7/8=11) Freq
 ------------------------------------------

 -----------------
 Distorted Ethanol
 -----------------
 Symbolic Z-matrix:
 Charge =  1 Multiplicity = 2

                         Standard orientation:
 ---------------------------------------------------------------------
 Center     Atomic      Atomic             Coordinates (Angstroms)
 Number     Number       Type             X           Y           Z
 ---------------------------------------------------------------------
      1          6           0       -3.109895    0.020864    0.203536
      2          9           0       -3.890483   -0.907968    0.028343
      3          9           0       -1.916056   -0.230265   -0.165126
      4          9           0       11.436803    0.004591    0.014656
      5          9           0       -3.557000    1.119732   -0.013563
 ---------------------------------------------------------------------

 SCF Done:  E(UHF) =  -435.137466962     A.U. after   68 cycles

 The electronic state is 2-A.
 Alpha  occ. eigenvalues --  -26.76174 -26.74671 -26.73361 -26.43739 -11.96334
 Alpha  occ. eigenvalues --   -2.17232  -2.06877  -2.03383  -1.69121  -1.32797
 Alpha  occ. eigenvalues --   -1.23780  -1.23277  -1.18504  -1.07157  -1.06776
 Alpha  occ. eigenvalues --   -1.04511  -1.03036  -1.01687  -0.85944  -0.75156
 Alpha  occ. eigenvalues --   -0.75153
 Alpha virt. eigenvalues --   -0.27569   0.07940   0.14467   0.16217   0.32932
 Alpha virt. eigenvalues --    0.36893   0.40611   0.42697   0.99747   1.01284
 Alpha virt. eigenvalues --    1.02790   1.03168   1.07191   1.08671   1.27385

  Beta  occ. eigenvalues --  -26.76174 -26.74671 -26.73361 -26.38964 -11.96334
  Beta  occ. eigenvalues --   -2.17232  -2.06877  -2.03383  -1.49929  -1.32797
  Beta  occ. eigenvalues --   -1.23780  -1.23277  -1.18504  -1.07157  -1.06776
  Beta  occ. eigenvalues --   -1.04511  -1.03036  -1.01687  -0.69991  -0.69988
  Beta virt. eigenvalues --   -0.27569   0.05739   0.07940   0.14467   0.16217
  Beta virt. eigenvalues --    0.32932   0.36893   0.40611   0.42697   0.99747
  Beta virt. eigenvalues --    1.01284   1.02790   1.06398   1.07191   1.08671

 Mulliken charges and spin densities:
               1          2
     1  C    1.259323   0.000000
     2  F   -0.078884   0.000000
     3  F   -0.127545   0.000000
     4  F    0.000000   1.000000
     5  F   -0.052894   0.000000
 Sum of Mulliken charges =   1.00000   1.00000

 Dipole moment (field-independent basis, Debye):
    X=            -15.0720    Y=              0.2504    Z=              1.3133  Tot=             15.1312
 Quadrupole moment (field-independent basis, Debye-Ang):
   XX=             26.1667   YY=            -20.9790   ZZ=            -19.5231
   XY=             -0.8366   XZ=             -4.0510   YZ=              0.3194

  Exact polarizability:  12.921  -0.185  12.601  -0.463   0.130   9.160
 Approx polarizability:  12.005  -0.194  11.755  -0.375   0.148   9.173

 ******    2 imaginary frequencies (negative Signs) ******

                      1                      2                      3
                      A                      A                      A
 Frequencies --    -17.9038                -0.6948               145.3903
 Red. masses --     18.9622                18.5913                18.9229
 Frc consts  --      0.0036                 0.0000                 0.2357
 IR Inten    --      0.2750                 3.0551                 0.2753
 Raman Activ --      0.0042                 0.0000                 0.1934

                      4                      5                      6
                      A                      A                      A
 Frequencies --    623.4416               649.9915               860.2025
 Red. masses --     18.1515                18.2108                13.7097
 Frc consts  --      4.1567                 4.5331                 5.9769
 IR Inten    --     14.9264                15.1602                92.6453
 Raman Activ --      0.7545                 0.7533                 0.5079

                      7                      8                      9
                      A                      A                      A
 Frequencies --   1121.2282              1628.8688              1838.9621
 Red. masses --     16.9983                13.4199                13.3397
 Frc consts  --     12.5906                20.9784                26.5791
 IR Inten    --     46.4587               451.5138               505.4427
 Raman Activ --      4.7112                 0.8337                 0.5297

 - Thermochemistry -
 -------------------
 Temperature   298.150 Kelvin.  Pressure   1.00000 Atm.
 Atom     1 has atomic number  6 and mass  12.00000

 Molecular mass:    87.99361 amu.
 Principal axes and moments of inertia in atomic units:
                           1         2         3
     Eigenvalues --   148.31803********************
           X            1.00000  -0.00001  -0.00013
           Y            0.00001   1.00000   0.00007
           Z            0.00013  -0.00007   1.00000
 This molecule is an asymmetric top.
 Rotational symmetry number  1.
 Rotational temperatures (Kelvin)      0.58397     0.00758     0.00749
 Rotational constants (GHZ):          12.16805     0.15794     0.15602
    2 imaginary frequencies ignored.
 Zero-point vibrational energy      41080.3 (Joules/Mol)
                                    9.81842 (Kcal/Mol)
 Warning -- explicit consideration of   1 degrees of freedom as
           vibrations may cause significant error
 Vibrational temperatures:    209.18   896.99   935.19  1237.64  1613.20
          (Kelvin)           2343.58  2645.85

 Zero-point correction=                           0.015647 (Hartree/Particle)
 Thermal correction to Energy=                    0.019502
 Thermal correction to Enthalpy=                  0.020446
 Thermal correction to Gibbs Free Energy=        -0.015573
 Sum of electronic and zero-point Energies=           -435.121820
 Sum of electronic and thermal Energies=              -435.117965
 Sum of electronic and thermal Enthalpies=            -435.117021
 Sum of electronic and thermal Free Energies=         -435.153040

                     E (Thermal)             CV                S
                      KCal/Mol        Cal/Mol-Kelvin    Cal/Mol-Kelvin
 Total                   12.238             10.668             75.809
 Electronic               0.000              0.000              1.377
 Translational            0.889              2.981             39.337
 Rotational               0.889              2.981             31.350
 Vibrational             10.460              4.706              3.744
 Vibration     1          0.617              1.908              2.732

 1\1\GINC-TP-LINUX1\Freq\UHF\6-31G(d)\C1F4(1+,2)\THOMAS\04-Mar-2017\0\\
 #P UHF/6-31g* IOP(7/33=1) IOP(7/8=11) Freq\\Distorted Ethanol\\1,2\C,0
 .942658,4.740591,-1.504429\F,1.881958,5.405959,-1.082837\F,0.380359,4.
 019145,-0.616981\F,-5.874367,-6.535747,4.661179\F,0.246104,5.28951,-2.
 321771\\Version=ES64L-G09RevD.01\State=2-A\HF=-435.137467\S2=0.752673\
 S2-1=0.\S2A=0.750003\RMSD=4.903e-09\RMSF=4.770e-02\ZeroPoint=0.0156466
 \Thermal=0.0195022\Dipole=2.9401415,4.3298524,-2.8367177\DipoleDeriv=2
 .1681195,0.3467059,0.3410468,0.3535943,1.8661984,-0.4455457,0.3377263,

 Normal termination of Gaussian 09 at Sat Mar  4 13:39:47 2017.
