 Gaussian 09, Revision D.01,
 Gaussian 09:  ES64L-G09RevD.01 24-Apr-2013

 ------------------------------------------
 #P UHF/6-31g* IOP(7/33=1) IOP(7/8=11) Freq
 ------------------------------------------

 -----------------
 Distorted Ethanol
 -----------------
 Symbolic Z-matrix:
 Charge =  1 Multiplicity = 2

                         Standard orientation:
 ---------------------------------------------------------------------
 Center     Atomic      Atomic             Coordinates (Angstroms)
 Number     Number       Type             X           Y           Z
 ---------------------------------------------------------------------
      1          6           0       -2.487633   -0.021263    0.116528
      2          9           0       -2.464293   -0.848552   -0.818281
      3          9           0       -2.701867    1.155612   -0.338049
      4          9           0       10.078127    0.003229    0.057969
      5          9           0       -3.253544   -0.296114    1.020677
 ---------------------------------------------------------------------

 SCF Done:  E(UHF) =  -435.105151149     A.U. after   23 cycles

 The electronic state is 2-A.
 Alpha  occ. eigenvalues --  -26.75757 -26.74315 -26.72625 -26.44350 -11.96835
 Alpha  occ. eigenvalues --   -2.16408  -2.05594  -2.02036  -1.69731  -1.32492
 Alpha  occ. eigenvalues --   -1.22834  -1.22135  -1.17619  -1.06925  -1.05856
 Alpha  occ. eigenvalues --   -1.03573  -1.01883  -1.00830  -0.86555  -0.75768
 Alpha  occ. eigenvalues --   -0.75763
 Alpha virt. eigenvalues --   -0.32166   0.09930   0.12676   0.14602   0.32256
 Alpha virt. eigenvalues --    0.36209   0.39132   0.42075   1.00247   1.01743
 Alpha virt. eigenvalues --    1.02557   1.03750   1.05082   1.05409   1.26470

  Beta  occ. eigenvalues --  -26.75757 -26.74315 -26.72625 -26.39575 -11.96835
  Beta  occ. eigenvalues --   -2.16408  -2.05594  -2.02036  -1.50540  -1.32492
  Beta  occ. eigenvalues --   -1.22834  -1.22135  -1.17619  -1.06925  -1.05856
  Beta  occ. eigenvalues --   -1.03573  -1.01883  -1.00830  -0.70603  -0.70598
  Beta virt. eigenvalues --   -0.32166   0.05130   0.09930   0.12676   0.14602
  Beta virt. eigenvalues --    0.32256   0.36209   0.39132   0.42075   1.00247
  Beta virt. eigenvalues --    1.01743   1.03750   1.05082   1.05409   1.05787

 Mulliken charges and spin densities:
               1          2
     1  C    1.273847   0.000000
     2  F   -0.092400   0.000000
     3  F   -0.125872   0.000000
     4  F    0.000000   1.000000
     5  F   -0.055575   0.000000
 Sum of Mulliken charges =   1.00000   1.00000

 Dipole moment (field-independent basis, Debye):
    X=            -11.5942    Y=             -0.2762    Z=              0.8899  Tot=             11.6316
 Quadrupole moment (field-independent basis, Debye-Ang):
   XX=              7.5433   YY=            -21.3067   ZZ=            -20.2305
   XY=              0.6923   XZ=             -1.9270   YZ=             -0.3210

  Exact polarizability:  10.004  -0.174  12.946  -1.101  -0.112  12.608
 Approx polarizability:  10.078  -0.184  11.944  -0.669  -0.104  11.896

 ******    1 imaginary frequencies (negative Signs) ******

                      1                      2                      3
                      A                      A                      A
 Frequencies --     -1.0483                55.1587               127.9513
 Red. masses --     18.5912                18.8449                18.8672
 Frc consts  --      0.0000                 0.0338                 0.1820
 IR Inten    --      3.0577                 0.5628                 0.3554
 Raman Activ --      0.0000                 0.1548                 0.1561

                      4                      5                      6
                      A                      A                      A
 Frequencies --    641.3107               657.7063               855.7614
 Red. masses --     18.2050                18.1542                14.1372
 Frc consts  --      4.4114                 4.6269                 6.0998
 IR Inten    --     13.7154                15.2503                80.9895
 Raman Activ --      0.7342                 0.7748                 0.8909

                      7                      8                      9
                      A                      A                      A
 Frequencies --   1132.4257              1521.4679              1741.1879
 Red. masses --     16.4710                13.3337                13.3305
 Frc consts  --     12.4449                18.1855                23.8115
 IR Inten    --     49.3710               426.8243               469.3195
 Raman Activ --      6.0149                 1.3353                 1.0197

 - Thermochemistry -
 -------------------
 Temperature   298.150 Kelvin.  Pressure   1.00000 Atm.
 Atom     1 has atomic number  6 and mass  12.00000

 Molecular mass:    87.99361 amu.
 Principal axes and moments of inertia in atomic units:
                           1         2         3
     Eigenvalues --   270.091368906.066208926.81872
           X            1.00000   0.00001  -0.00008
           Y           -0.00001   1.00000  -0.00029
           Z            0.00008   0.00029   1.00000
 This molecule is an asymmetric top.
 Rotational symmetry number  1.
 Rotational temperatures (Kelvin)      0.32068     0.00973     0.00970
 Rotational constants (GHZ):           6.68197     0.20264     0.20217
    1 imaginary frequencies ignored.
 Zero-point vibrational energy      40272.1 (Joules/Mol)
                                    9.62526 (Kcal/Mol)
 Warning -- explicit consideration of   2 degrees of freedom as
           vibrations may cause significant error
 Vibrational temperatures:     79.36   184.09   922.70   946.29  1231.25
          (Kelvin)           1629.31  2189.05  2505.18

 Zero-point correction=                           0.015339 (Hartree/Particle)
 Thermal correction to Energy=                    0.020039
 Thermal correction to Enthalpy=                  0.020984
 Thermal correction to Gibbs Free Energy=        -0.017376
 Sum of electronic and zero-point Energies=           -435.089812
 Sum of electronic and thermal Energies=              -435.085112
 Sum of electronic and thermal Enthalpies=            -435.084168
 Sum of electronic and thermal Free Energies=         -435.122527

                     E (Thermal)             CV                S
                      KCal/Mol        Cal/Mol-Kelvin    Cal/Mol-Kelvin
 Total                   12.575             12.638             80.735
 Electronic               0.000              0.000              1.377
 Translational            0.889              2.981             39.337
 Rotational               0.889              2.981             31.441
 Vibrational             10.797              6.676              8.580
 Vibration     1          0.596              1.976              4.623
 Vibration     2          0.611              1.925              2.977

 1\1\GINC-TP-LINUX1\Freq\UHF\6-31G(d)\C1F4(1+,2)\THOMAS\04-Mar-2017\0\\
 #P UHF/6-31g* IOP(7/33=1) IOP(7/8=11) Freq\\Distorted Ethanol\\1,2\C,-
 0.051761,4.395403,-0.873127\F,1.132957,4.068248,-0.653506\F,-0.491813,
 5.131721,0.076484\F,-3.673113,-6.854787,3.395523\F,-0.245806,4.90631,-
 1.959851\\Version=ES64L-G09RevD.01\State=2-A\HF=-435.1051511\S2=0.7526
 73\S2-1=0.\S2A=0.750003\RMSD=2.171e-09\RMSF=6.294e-02\ZeroPoint=0.0153
 388\Thermal=0.0200394\Dipole=1.1630955,4.0201246,-1.8513508\DipoleDeri
 v=2.014022,-0.4932861,0.0286913,-0.4879066,1.5466094,-0.0347076,0.0407

 Normal termination of Gaussian 09 at Sat Mar  4 13:43:14 2017.
