 Gaussian 09, Revision D.01,
 Gaussian 09:  ES64L-G09RevD.01 24-Apr-2013

 ------------------------------------------
 #P UHF/6-31g* IOP(7/33=1) IOP(7/8=11) Freq
 ------------------------------------------

 -----------------
 Distorted Ethanol
 -----------------
 Symbolic Z-matrix:
 Charge =  1 Multiplicity = 2

                         Standard orientation:
 ---------------------------------------------------------------------
 Center     Atomic      Atomic             Coordinates (Angstroms)
 Number     Number       Type             X           Y           Z
 ---------------------------------------------------------------------
      1          6           0       -3.392836    0.000391   -0.205150
      2          9           0       -2.712858   -0.804606    0.413102
      3          9           0       -4.566600   -0.377492   -0.388237
      4          9           0       12.879498    0.002429   -0.045797
      5          9           0       -3.338148    1.179408    0.157699
 ---------------------------------------------------------------------

 SCF Done:  E(UHF) =  -435.125425887     A.U. after   58 cycles

 The electronic state is 2-A.
 Alpha  occ. eigenvalues --  -26.75351 -26.74589 -26.73517 -26.43373 -11.96367
 Alpha  occ. eigenvalues --   -2.16923  -2.06160  -2.04001  -1.68754  -1.32621
 Alpha  occ. eigenvalues --   -1.23640  -1.23000  -1.18285  -1.07351  -1.06605
 Alpha  occ. eigenvalues --   -1.04020  -1.02863  -1.01450  -0.85578  -0.74789
 Alpha  occ. eigenvalues --   -0.74787
 Alpha virt. eigenvalues --   -0.29507   0.11757   0.13017   0.15134   0.32508
 Alpha virt. eigenvalues --    0.37917   0.39783   0.41943   1.00649   1.01276
 Alpha virt. eigenvalues --    1.02817   1.03534   1.06278   1.07024   1.27272

  Beta  occ. eigenvalues --  -26.75351 -26.74589 -26.73517 -26.38598 -11.96367
  Beta  occ. eigenvalues --   -2.16923  -2.06160  -2.04001  -1.49563  -1.32621
  Beta  occ. eigenvalues --   -1.23640  -1.23000  -1.18285  -1.07351  -1.06605
  Beta  occ. eigenvalues --   -1.04020  -1.02863  -1.01450  -0.69624  -0.69622
  Beta virt. eigenvalues --   -0.29507   0.06105   0.11757   0.13017   0.15134
  Beta virt. eigenvalues --    0.32508   0.37917   0.39783   0.41943   1.00649
  Beta virt. eigenvalues --    1.01276   1.02817   1.06278   1.06764   1.07024

 Mulliken charges and spin densities:
               1          2
     1  C    1.255898   0.000000
     2  F   -0.069621   0.000000
     3  F   -0.100980   0.000000
     4  F    0.000000   1.000000
     5  F   -0.085297   0.000000
 Sum of Mulliken charges =   1.00000   1.00000

 Dipole moment (field-independent basis, Debye):
    X=            -16.0102    Y=             -0.0105    Z=             -1.2810  Tot=             16.0614
 Quadrupole moment (field-independent basis, Debye-Ang):
   XX=             32.3180   YY=            -20.3899   ZZ=            -20.2684
   XY=             -0.0817   XZ=              4.0136   YZ=              0.1835

  Exact polarizability:  12.117  -0.105  12.972   1.202   0.053   9.680
 Approx polarizability:  11.385  -0.126  12.069   0.799   0.030   9.633

 ******    2 imaginary frequencies (negative Signs) ******

                      1                      2                      3
                      A                      A                      A
 Frequencies --    -24.4692                -0.5305                56.1034
 Red. masses --     18.9480                18.5912                18.9212
 Frc consts  --      0.0067                 0.0000                 0.0351
 IR Inten    --      0.2322                 3.0539                 0.2315
 Raman Activ --      0.0490                 0.0000                 0.1604

                      4                      5                      6
                      A                      A                      A
 Frequencies --    636.2418               662.2622               858.4241
 Red. masses --     18.1138                18.1512                13.8884
 Frc consts  --      4.3202                 4.6905                 6.0298
 IR Inten    --     15.7601                16.6838                88.0516
 Raman Activ --      0.6889                 0.7173                 0.6660

                      7                      8                      9
                      A                      A                      A
 Frequencies --   1179.1382              1653.7167              1759.7526
 Red. masses --     17.0290                13.2997                13.3019
 Frc consts  --     13.9498                21.4296                24.2698
 IR Inten    --     28.4131               470.9758               488.4597
 Raman Activ --      5.1789                 0.8306                 0.7412

 - Thermochemistry -
 -------------------
 Temperature   298.150 Kelvin.  Pressure   1.00000 Atm.
 Atom     1 has atomic number  6 and mass  12.00000

 Molecular mass:    87.99361 amu.
 Principal axes and moments of inertia in atomic units:
                           1         2         3
     Eigenvalues --   173.39817********************
           X            1.00000   0.00000   0.00012
           Y            0.00000   1.00000   0.00000
           Z           -0.00012   0.00000   1.00000
 This molecule is an asymmetric top.
 Rotational symmetry number  1.
 Rotational temperatures (Kelvin)      0.49951     0.00600     0.00595
 Rotational constants (GHZ):          10.40808     0.12496     0.12391
    2 imaginary frequencies ignored.
 Zero-point vibrational energy      40706.8 (Joules/Mol)
                                    9.72915 (Kcal/Mol)
 Warning -- explicit consideration of   1 degrees of freedom as
           vibrations may cause significant error
 Vibrational temperatures:     80.72   915.41   952.85  1235.08  1696.51
          (Kelvin)           2379.33  2531.89

 Zero-point correction=                           0.015504 (Hartree/Particle)
 Thermal correction to Energy=                    0.019515
 Thermal correction to Enthalpy=                  0.020459
 Thermal correction to Gibbs Free Energy=        -0.016714
 Sum of electronic and zero-point Energies=           -435.109921
 Sum of electronic and thermal Energies=              -435.105911
 Sum of electronic and thermal Enthalpies=            -435.104967
 Sum of electronic and thermal Free Energies=         -435.142140

                     E (Thermal)             CV                S
                      KCal/Mol        Cal/Mol-Kelvin    Cal/Mol-Kelvin
 Total                   12.246             10.647             78.236
 Electronic               0.000              0.000              1.377
 Translational            0.889              2.981             39.337
 Rotational               0.889              2.981             31.967
 Vibrational             10.468              4.685              5.555
 Vibration     1          0.596              1.975              4.590

 1\1\GINC-TP-LINUX1\Freq\UHF\6-31G(d)\C1F4(1+,2)\THOMAS\04-Mar-2017\0\\
 #P UHF/6-31g* IOP(7/33=1) IOP(7/8=11) Freq\\Distorted Ethanol\\1,2\C,-
 0.090372,5.549234,-0.959576\F,0.75824,4.808708,-0.48618\F,0.191123,6.7
 59064,-0.854172\F,-2.743283,-9.995487,3.057634\F,-0.516667,5.270188,-2
 .084359\\Version=ES64L-G09RevD.01\State=2-A\HF=-435.1254259\S2=0.75267
 3\S2-1=0.\S2A=0.750003\RMSD=4.311e-10\RMSF=5.119e-02\ZeroPoint=0.01550
 44\Thermal=0.0195145\Dipole=0.681624,6.1441624,-1.3094641\DipoleDeriv=
 1.6895484,-0.1270895,0.5506279,-0.1202201,2.3639861,0.0694529,0.547827

 Normal termination of Gaussian 09 at Sat Mar  4 13:45:40 2017.
