 Gaussian 09, Revision D.01,
 Gaussian 09:  ES64L-G09RevD.01 24-Apr-2013

 ------------------------------------------
 #P UHF/6-31g* IOP(7/33=1) IOP(7/8=11) Freq
 ------------------------------------------

 -----------------
 Distorted Ethanol
 -----------------
 Symbolic Z-matrix:
 Charge =  1 Multiplicity = 2

                         Standard orientation:
 ---------------------------------------------------------------------
 Center     Atomic      Atomic             Coordinates (Angstroms)
 Number     Number       Type             X           Y           Z
 ---------------------------------------------------------------------
      1          6           0        2.853580   -0.002299   -0.193340
      2          9           0        3.777142   -0.788621   -0.510012
      3          9           0        2.187365   -0.401453    0.785347
      4          9           0      -11.154755    0.003919   -0.073244
      5          9           0        3.287862    1.187687   -0.073197
 ---------------------------------------------------------------------

 SCF Done:  E(UHF) =  -435.109588407     A.U. after   14 cycles

 The electronic state is 2-A.
 Alpha  occ. eigenvalues --  -26.74940 -26.74278 -26.73777 -26.43906 -11.97164
 Alpha  occ. eigenvalues --   -2.14998  -2.04267  -2.02882  -1.69288  -1.32150
 Alpha  occ. eigenvalues --   -1.22080  -1.21720  -1.16838  -1.06383  -1.06002
 Alpha  occ. eigenvalues --   -1.03089  -1.02459  -1.01211  -0.86111  -0.75323
 Alpha  occ. eigenvalues --   -0.75320
 Alpha virt. eigenvalues --   -0.32254   0.10149   0.11604   0.12823   0.32616
 Alpha virt. eigenvalues --    0.36806   0.37973   0.40443   1.00987   1.01588
 Alpha virt. eigenvalues --    1.03001   1.03377   1.04931   1.05580   1.27492

  Beta  occ. eigenvalues --  -26.74940 -26.74278 -26.73777 -26.39131 -11.97164
  Beta  occ. eigenvalues --   -2.14998  -2.04267  -2.02882  -1.50096  -1.32150
  Beta  occ. eigenvalues --   -1.22080  -1.21720  -1.16838  -1.06383  -1.06002
  Beta  occ. eigenvalues --   -1.03089  -1.02459  -1.01211  -0.70159  -0.70155
  Beta virt. eigenvalues --   -0.32254   0.05573   0.10149   0.11604   0.12823
  Beta virt. eigenvalues --    0.32616   0.36806   0.37973   0.40443   1.00987
  Beta virt. eigenvalues --    1.01588   1.03377   1.04931   1.05580   1.06231

 Mulliken charges and spin densities:
               1          2
     1  C    1.297887   0.000000
     2  F   -0.095532   0.000000
     3  F   -0.089168   0.000000
     4  F    0.000000   1.000000
     5  F   -0.113187   0.000000
 Sum of Mulliken charges =   1.00000   1.00000

 Dipole moment (field-independent basis, Debye):
    X=             13.3761    Y=             -0.0697    Z=             -1.2271  Tot=             13.4324
 Quadrupole moment (field-independent basis, Debye-Ang):
   XX=             16.3981   YY=            -20.8842   ZZ=            -20.1740
   XY=             -0.1952   XZ=             -3.1017   YZ=              0.4039

  Exact polarizability:  11.730   0.158  13.224  -1.711   0.107  11.003
 Approx polarizability:  11.283   0.153  12.250  -1.138   0.082  10.760

 ******    1 imaginary frequencies (negative Signs) ******

                      1                      2                      3
                      A                      A                      A
 Frequencies --     -0.7850               133.5407               150.5917
 Red. masses --     18.5912                18.9084                18.9005
 Frc consts  --      0.0000                 0.1987                 0.2525
 IR Inten    --      3.0557                 0.2331                 0.2697
 Raman Activ --      0.0000                 0.1315                 0.1522

                      4                      5                      6
                      A                      A                      A
 Frequencies --    632.3089               649.5704               863.4230
 Red. masses --     18.2484                18.2482                14.3474
 Frc consts  --      4.2987                 4.5365                 6.3019
 IR Inten    --     11.9042                12.8971                76.2049
 Raman Activ --      0.8082                 0.8055                 0.7863

                      7                      8                      9
                      A                      A                      A
 Frequencies --   1105.7218              1526.6265              1601.6816
 Red. masses --     16.3653                13.2556                13.2281
 Frc consts  --     11.7887                18.2019                19.9940
 IR Inten    --     38.3898               440.4356               458.6581
 Raman Activ --      6.1870                 1.2268                 1.0684

 - Thermochemistry -
 -------------------
 Temperature   298.150 Kelvin.  Pressure   1.00000 Atm.
 Atom     1 has atomic number  6 and mass  12.00000

 Molecular mass:    87.99361 amu.
 Principal axes and moments of inertia in atomic units:
                           1         2         3
     Eigenvalues --   210.65113********************
           X            1.00000   0.00000  -0.00012
           Y            0.00000   1.00000   0.00001
           Z            0.00012  -0.00001   1.00000
 This molecule is an asymmetric top.
 Rotational symmetry number  1.
 Rotational temperatures (Kelvin)      0.41117     0.00796     0.00790
 Rotational constants (GHZ):           8.56744     0.16590     0.16459
    1 imaginary frequencies ignored.
 Zero-point vibrational energy      39856.4 (Joules/Mol)
                                    9.52590 (Kcal/Mol)
 Warning -- explicit consideration of   2 degrees of freedom as
           vibrations may cause significant error
 Vibrational temperatures:    192.14   216.67   909.75   934.59  1242.27
          (Kelvin)           1590.89  2196.47  2304.46

 Zero-point correction=                           0.015180 (Hartree/Particle)
 Thermal correction to Energy=                    0.019699
 Thermal correction to Enthalpy=                  0.020644
 Thermal correction to Gibbs Free Energy=        -0.016835
 Sum of electronic and zero-point Energies=           -435.094408
 Sum of electronic and thermal Energies=              -435.089889
 Sum of electronic and thermal Enthalpies=            -435.088945
 Sum of electronic and thermal Free Energies=         -435.126423

                     E (Thermal)             CV                S
                      KCal/Mol        Cal/Mol-Kelvin    Cal/Mol-Kelvin
 Total                   12.362             12.624             78.880
 Electronic               0.000              0.000              1.377
 Translational            0.889              2.981             39.337
 Rotational               0.889              2.981             31.597
 Vibrational             10.584              6.662              6.569
 Vibration     1          0.613              1.920              2.894
 Vibration     2          0.618              1.902              2.665

 1\1\GINC-TP-LINUX1\Freq\UHF\6-31G(d)\C1F4(1+,2)\THOMAS\04-Mar-2017\0\\
 #P UHF/6-31g* IOP(7/33=1) IOP(7/8=11) Freq\\Distorted Ethanol\\1,2\C,0
 .577855,4.545215,-1.404198\F,1.687541,5.124109,-1.33328\F,-0.097556,4.
 655799,-0.35893\F,-5.825039,-6.345509,4.649147\F,-0.045732,4.880832,-2
 .461365\\Version=ES64L-G09RevD.01\State=2-A\HF=-435.1095884\S2=0.75267
 3\S2-1=0.\S2A=0.750003\RMSD=7.659e-09\RMSF=6.127e-02\ZeroPoint=0.01518
 05\Thermal=0.0196994\Dipole=2.7000926,3.8221648,-2.4553819\DipoleDeriv
 =2.2796032,0.2179299,0.0029756,0.219918,1.2908016,-0.0912576,0.005337,

 Normal termination of Gaussian 09 at Sat Mar  4 13:45:33 2017.
