 Gaussian 09, Revision D.01,
 Gaussian 09:  ES64L-G09RevD.01 24-Apr-2013

 ------------------------------------------
 #P UHF/6-31g* IOP(7/33=1) IOP(7/8=11) Freq
 ------------------------------------------

 -----------------
 Distorted Ethanol
 -----------------
 Symbolic Z-matrix:
 Charge =  1 Multiplicity = 2

                         Standard orientation:
 ---------------------------------------------------------------------
 Center     Atomic      Atomic             Coordinates (Angstroms)
 Number     Number       Type             X           Y           Z
 ---------------------------------------------------------------------
      1          6           0       -2.849391   -0.022412   -0.002354
      2          9           0       -3.019267    1.198191   -0.177827
      3          9           0       -2.563503   -0.406605    1.056954
      4          9           0       10.746776   -0.000181   -0.049716
      5          9           0       -3.264412   -0.776464   -0.827841
 ---------------------------------------------------------------------

 SCF Done:  E(UHF) =  -435.162348477     A.U. after   84 cycles

 The electronic state is 2-A.
 Alpha  occ. eigenvalues --  -26.76836 -26.75419 -26.73126 -26.44014 -11.94985
 Alpha  occ. eigenvalues --   -2.20317  -2.09981  -2.05241  -1.69396  -1.33564
 Alpha  occ. eigenvalues --   -1.26126  -1.25376  -1.20994  -1.08355  -1.07823
 Alpha  occ. eigenvalues --   -1.06296  -1.03957  -1.02309  -0.86220  -0.75430
 Alpha  occ. eigenvalues --   -0.75427
 Alpha virt. eigenvalues --   -0.19553   0.01909   0.20230   0.21326   0.32842
 Alpha virt. eigenvalues --    0.38604   0.43811   0.47255   0.98493   1.00070
 Alpha virt. eigenvalues --    1.02451   1.02892   1.11710   1.12794   1.25906

  Beta  occ. eigenvalues --  -26.76836 -26.75419 -26.73126 -26.39239 -11.94985
  Beta  occ. eigenvalues --   -2.20317  -2.09981  -2.05241  -1.50205  -1.33564
  Beta  occ. eigenvalues --   -1.26126  -1.25376  -1.20994  -1.08355  -1.07823
  Beta  occ. eigenvalues --   -1.06296  -1.03957  -1.02309  -0.70265  -0.70263
  Beta virt. eigenvalues --   -0.19553   0.01909   0.05462   0.20230   0.21326
  Beta virt. eigenvalues --    0.32842   0.38604   0.43811   0.47255   0.98493
  Beta virt. eigenvalues --    1.00070   1.02451   1.06122   1.11710   1.12794

 Mulliken charges and spin densities:
               1          2
     1  C    1.191275   0.000000
     2  F   -0.119855   0.000000
     3  F   -0.014912   0.000000
     4  F    0.000000   1.000000
     5  F   -0.056509   0.000000
 Sum of Mulliken charges =   1.00000   1.00000

 Dipole moment (field-independent basis, Debye):
    X=            -13.5050    Y=             -0.3623    Z=              0.0946  Tot=             13.5102
 Quadrupole moment (field-independent basis, Debye-Ang):
   XX=             17.8691   YY=            -21.0710   ZZ=            -20.4162
   XY=              0.8573   XZ=              0.0182   YZ=             -0.1997

  Exact polarizability:   8.823  -0.071  12.418   1.360  -0.045  11.695
 Approx polarizability:   8.598  -0.076  11.563   1.137  -0.036  10.970

 ******    3 imaginary frequencies (negative Signs) ******

                      1                      2                      3
                      A                      A                      A
 Frequencies --   -223.3155               -82.9020                -0.7921
 Red. masses --     18.9481                18.9400                18.5912
 Frc consts  --      0.5567                 0.0767                 0.0000
 IR Inten    --      0.3345                 0.3399                 3.0556
 Raman Activ --      0.1653                 0.1730                 0.0000

                      4                      5                      6
                      A                      A                      A
 Frequencies --    629.0924               638.2556               828.9213
 Red. masses --     17.9939                18.0158                12.9739
 Frc consts  --      4.1957                 4.3241                 5.2523
 IR Inten    --     21.4598                19.8969               112.8888
 Raman Activ --      0.5978                 0.6542                 0.1085

                      7                      8                      9
                      A                      A                      A
 Frequencies --   1198.6654              1822.7618              2138.5261
 Red. masses --     18.2973                13.4950                13.3631
 Frc consts  --     15.4893                26.4170                36.0069
 IR Inten    --     28.4738               498.4477               558.2912
 Raman Activ --      3.4365                 0.3082                 0.1337

 - Thermochemistry -
 -------------------
 Temperature   298.150 Kelvin.  Pressure   1.00000 Atm.
 Atom     1 has atomic number  6 and mass  12.00000

 Molecular mass:    87.99361 amu.
 Principal axes and moments of inertia in atomic units:
                           1         2         3
     Eigenvalues --   274.14424********************
           X            1.00000   0.00002   0.00000
           Y           -0.00002   1.00000   0.00001
           Z            0.00000  -0.00001   1.00000
 This molecule is an asymmetric top.
 Rotational symmetry number  1.
 Rotational temperatures (Kelvin)      0.31594     0.00858     0.00856
 Rotational constants (GHZ):           6.58318     0.17877     0.17833
    3 imaginary frequencies ignored.
 Zero-point vibrational energy      43401.8 (Joules/Mol)
                                   10.37329 (Kcal/Mol)
 Vibrational temperatures:    905.12   918.31  1192.63  1724.61  2622.54
          (Kelvin)           3076.86

 Zero-point correction=                           0.016531 (Hartree/Particle)
 Thermal correction to Energy=                    0.019737
 Thermal correction to Enthalpy=                  0.020681
 Thermal correction to Gibbs Free Energy=        -0.014212
 Sum of electronic and zero-point Energies=           -435.145818
 Sum of electronic and thermal Energies=              -435.142611
 Sum of electronic and thermal Enthalpies=            -435.141667
 Sum of electronic and thermal Free Energies=         -435.176561

                     E (Thermal)             CV                S
                      KCal/Mol        Cal/Mol-Kelvin    Cal/Mol-Kelvin
 Total                   12.385              8.725             73.440
 Electronic               0.000              0.000              1.377
 Translational            0.889              2.981             39.337
 Rotational               0.889              2.981             31.705
 Vibrational             10.608              2.763              1.021

 1\1\GINC-TP-LINUX1\Freq\UHF\6-31G(d)\C1F4(1+,2)\THOMAS\04-Mar-2017\0\\
 #P UHF/6-31g* IOP(7/33=1) IOP(7/8=11) Freq\\Distorted Ethanol\\1,2\C,0
 .151538,4.851122,-1.044893\F,1.369019,4.603755,-0.966982\F,-0.425556,5
 .157199,-0.083255\F,-4.430992,-6.93959,3.938881\F,-0.317276,5.054544,-
 2.122436\\Version=ES64L-G09RevD.01\State=2-A\HF=-435.1623485\S2=0.7526
 73\S2-1=0.\S2A=0.750003\RMSD=2.999e-09\RMSF=4.252e-02\ZeroPoint=0.0165
 309\Thermal=0.0197371\Dipole=1.6636835,4.6507421,-1.9635034\DipoleDeri
 v=2.3933129,-0.3339463,-0.0079594,-0.3454475,1.3676948,0.052977,-0.007

 Normal termination of Gaussian 09 at Sat Mar  4 13:41:31 2017.
