 Gaussian 09, Revision D.01,
 Gaussian 09:  ES64L-G09RevD.01 24-Apr-2013

 ------------------------------------------
 #P UHF/6-31g* IOP(7/33=1) IOP(7/8=11) Freq
 ------------------------------------------

 -----------------
 Distorted Ethanol
 -----------------
 Symbolic Z-matrix:
 Charge =  1 Multiplicity = 2

                         Standard orientation:
 ---------------------------------------------------------------------
 Center     Atomic      Atomic             Coordinates (Angstroms)
 Number     Number       Type             X           Y           Z
 ---------------------------------------------------------------------
      1          6           0       -2.951664    0.047985   -0.180664
      2          9           0       -1.969339   -0.502631    0.544807
      3          9           0       -3.910961   -0.753171   -0.365093
      4          9           0       11.029281    0.003670   -0.063264
      5          9           0       -3.181205    1.220142    0.003993
 ---------------------------------------------------------------------

 SCF Done:  E(UHF) =  -435.127259530     A.U. after   14 cycles

 The electronic state is 2-A.
 Alpha  occ. eigenvalues --  -26.77789 -26.74859 -26.71871 -26.43886 -11.97418
 Alpha  occ. eigenvalues --   -2.15800  -2.06185  -1.99494  -1.69267  -1.32675
 Alpha  occ. eigenvalues --   -1.22785  -1.21412  -1.17220  -1.06779  -1.05088
 Alpha  occ. eigenvalues --   -1.04742  -1.01514  -1.00757  -0.86091  -0.75303
 Alpha  occ. eigenvalues --   -0.75299
 Alpha virt. eigenvalues --   -0.28933   0.03742   0.10029   0.15147   0.33618
 Alpha virt. eigenvalues --    0.35088   0.38724   0.42242   0.98556   1.01509
 Alpha virt. eigenvalues --    1.03021   1.04179   1.07156   1.07884   1.27045

  Beta  occ. eigenvalues --  -26.77789 -26.74859 -26.71871 -26.39111 -11.97418
  Beta  occ. eigenvalues --   -2.15800  -2.06185  -1.99494  -1.50076  -1.32675
  Beta  occ. eigenvalues --   -1.22785  -1.21412  -1.17220  -1.06779  -1.05088
  Beta  occ. eigenvalues --   -1.04742  -1.01514  -1.00757  -0.70138  -0.70135
  Beta virt. eigenvalues --   -0.28933   0.03742   0.05593   0.10029   0.15147
  Beta virt. eigenvalues --    0.33618   0.35088   0.38724   0.42242   0.98556
  Beta virt. eigenvalues --    1.01509   1.04179   1.06251   1.07156   1.07884

 Mulliken charges and spin densities:
               1          2
     1  C    1.312647   0.000000
     2  F   -0.167255   0.000000
     3  F   -0.103850   0.000000
     4  F    0.000000   1.000000
     5  F   -0.041542   0.000000
 Sum of Mulliken charges =   1.00000   1.00000

 Dipole moment (field-independent basis, Debye):
    X=            -14.3034    Y=              0.6066    Z=             -1.2652  Tot=             14.3720
 Quadrupole moment (field-independent basis, Debye-Ang):
   XX=             21.4108   YY=            -20.1961   ZZ=            -20.4858
   XY=             -1.7385   XZ=              3.4457   YZ=             -0.3412

  Exact polarizability:  12.692  -0.136  13.555   1.850  -0.252   9.980
 Approx polarizability:  11.835  -0.081  12.739   1.474  -0.275   9.814

 ******    1 imaginary frequencies (negative Signs) ******

                      1                      2                      3
                      A                      A                      A
 Frequencies --     -0.7721               147.3672               215.2661
 Red. masses --     18.5912                18.9370                18.9370
 Frc consts  --      0.0000                 0.2423                 0.5170
 IR Inten    --      3.0557                 0.2790                 0.0857
 Raman Activ --      0.0000                 0.0664                 0.2417

                      4                      5                      6
                      A                      A                      A
 Frequencies --    593.0285               618.1354               862.8954
 Red. masses --     18.4833                18.3246                14.7790
 Frc consts  --      3.8298                 4.1253                 6.4835
 IR Inten    --      6.5652                10.6074                70.1004
 Raman Activ --      1.0601                 1.0357                 0.7440

                      7                      8                      9
                      A                      A                      A
 Frequencies --    947.0607              1396.3191              1775.7838
 Red. masses --     15.1189                13.4850                13.3706
 Frc consts  --      7.9896                15.4907                24.8417
 IR Inten    --     96.4372               394.6904               487.0665
 Raman Activ --      5.3232                 1.1858                 0.5896

 - Thermochemistry -
 -------------------
 Temperature   298.150 Kelvin.  Pressure   1.00000 Atm.
 Atom     1 has atomic number  6 and mass  12.00000

 Molecular mass:    87.99361 amu.
 Principal axes and moments of inertia in atomic units:
                           1         2         3
     Eigenvalues --   187.57989********************
           X            1.00000  -0.00003   0.00012
           Y            0.00003   1.00000  -0.00017
           Z           -0.00012   0.00017   1.00000
 This molecule is an asymmetric top.
 Rotational symmetry number  1.
 Rotational temperatures (Kelvin)      0.46174     0.00814     0.00804
 Rotational constants (GHZ):           9.62119     0.16955     0.16757
    1 imaginary frequencies ignored.
 Zero-point vibrational energy      39212.7 (Joules/Mol)
                                    9.37207 (Kcal/Mol)
 Warning -- explicit consideration of   4 degrees of freedom as
           vibrations may cause significant error
 Vibrational temperatures:    212.03   309.72   853.23   889.36  1241.51
          (Kelvin)           1362.61  2008.99  2554.95

 Zero-point correction=                           0.014935 (Hartree/Particle)
 Thermal correction to Energy=                    0.019383
 Thermal correction to Enthalpy=                  0.020328
 Thermal correction to Gibbs Free Energy=        -0.016753
 Sum of electronic and zero-point Energies=           -435.112324
 Sum of electronic and thermal Energies=              -435.107876
 Sum of electronic and thermal Enthalpies=            -435.106932
 Sum of electronic and thermal Free Energies=         -435.144012

                     E (Thermal)             CV                S
                      KCal/Mol        Cal/Mol-Kelvin    Cal/Mol-Kelvin
 Total                   12.163             12.852             78.042
 Electronic               0.000              0.000              1.377
 Translational            0.889              2.981             39.337
 Rotational               0.889              2.981             31.442
 Vibrational             10.386              6.890              5.885
 Vibration     1          0.617              1.906              2.706
 Vibration     2          0.645              1.818              1.999
 Vibration     3          0.951              1.047              0.462
 Vibration     4          0.978              0.994              0.419

 1\1\GINC-TP-LINUX1\Freq\UHF\6-31G(d)\C1F4(1+,2)\THOMAS\04-Mar-2017\0\\
 #P UHF/6-31g* IOP(7/33=1) IOP(7/8=11) Freq\\Distorted Ethanol\\1,2\C,-
 0.209416,5.098284,-0.888162\F,0.472239,4.080497,-0.346032\F,0.111507,6
 .20874,-0.378248\F,-2.722915,-8.067488,3.090195\F,-0.448002,5.032415,-
 2.071157\\Version=ES64L-G09RevD.01\State=2-A\HF=-435.1272595\S2=0.7526
 73\S2-1=0.\S2A=0.750003\RMSD=9.745e-09\RMSF=6.006e-02\ZeroPoint=0.0149
 353\Thermal=0.0193834\Dipole=0.5197344,5.3816848,-1.6551324\DipoleDeri
 v=1.4111619,-0.0847226,0.3778027,-0.1075719,2.2738237,0.0972668,0.4084

 Normal termination of Gaussian 09 at Sat Mar  4 13:42:08 2017.
