 Gaussian 09, Revision D.01,
 Gaussian 09:  ES64L-G09RevD.01 24-Apr-2013

 ------------------------------------------
 #P UHF/6-31g* IOP(7/33=1) IOP(7/8=11) Freq
 ------------------------------------------

 -----------------
 Distorted Ethanol
 -----------------
 Symbolic Z-matrix:
 Charge =  1 Multiplicity = 2

                         Standard orientation:
 ---------------------------------------------------------------------
 Center     Atomic      Atomic             Coordinates (Angstroms)
 Number     Number       Type             X           Y           Z
 ---------------------------------------------------------------------
      1          6           0       -2.968991   -0.009979    0.058399
      2          9           0       -3.313168   -0.852001   -0.863670
      3          9           0       -3.041459    1.221255   -0.302514
      4          9           0       12.018185   -0.029555    0.031019
      5          9           0       -3.684231   -0.333047    1.096232
 ---------------------------------------------------------------------

 SCF Done:  E(UHF) =  -435.085900422     A.U. after   57 cycles

 The electronic state is 2-A.
 Alpha  occ. eigenvalues --  -26.75596 -26.73512 -26.73471 -26.43668 -11.98218
 Alpha  occ. eigenvalues --   -2.12180  -2.03045  -2.00316  -1.69049  -1.31441
 Alpha  occ. eigenvalues --   -1.20570  -1.19303  -1.14911  -1.05754  -1.04688
 Alpha  occ. eigenvalues --   -1.02907  -1.01536  -1.00318  -0.85873  -0.75084
 Alpha  occ. eigenvalues --   -0.75081
 Alpha virt. eigenvalues --   -0.34835   0.04855   0.08543   0.11445   0.32920
 Alpha virt. eigenvalues --    0.35696   0.36437   0.39115   1.00578   1.01910
 Alpha virt. eigenvalues --    1.03123   1.03239   1.04459   1.05324   1.26733

  Beta  occ. eigenvalues --  -26.75596 -26.73512 -26.73471 -26.38892 -11.98218
  Beta  occ. eigenvalues --   -2.12180  -2.03045  -2.00316  -1.49858  -1.31441
  Beta  occ. eigenvalues --   -1.20570  -1.19303  -1.14911  -1.05754  -1.04688
  Beta  occ. eigenvalues --   -1.02907  -1.01536  -1.00318  -0.69920  -0.69917
  Beta virt. eigenvalues --   -0.34835   0.04855   0.05811   0.08543   0.11445
  Beta virt. eigenvalues --    0.32920   0.35696   0.36437   0.39115   1.00578
  Beta virt. eigenvalues --    1.01910   1.03123   1.04459   1.05324   1.06469

 Mulliken charges and spin densities:
               1          2
     1  C    1.349430   0.000000
     2  F   -0.120933   0.000000
     3  F   -0.104349   0.000000
     4  F    0.000000   1.000000
     5  F   -0.124149   0.000000
 Sum of Mulliken charges =   1.00000   1.00000

 Dipole moment (field-independent basis, Debye):
    X=            -13.7662    Y=              0.0416    Z=              0.3516  Tot=             13.7708
 Quadrupole moment (field-independent basis, Debye-Ang):
   XX=             18.8518   YY=            -20.6755   ZZ=            -21.1760
   XY=             -0.2177   XZ=             -0.8277   YZ=              0.2897

  Exact polarizability:  10.390   0.948  14.067  -0.821   0.018  13.251
 Approx polarizability:  10.635   0.790  13.137  -0.525  -0.055  12.268

 ******    1 imaginary frequencies (negative Signs) ******

                      1                      2                      3
                      A                      A                      A
 Frequencies --     -0.6670               184.6534               229.1220
 Red. masses --     18.5913                18.9029                18.8971
 Frc consts  --      0.0000                 0.3797                 0.5845
 IR Inten    --      3.0548                 0.0667                 0.1317
 Raman Activ --      0.0000                 0.1941                 0.2490

                      4                      5                      6
                      A                      A                      A
 Frequencies --    587.5000               650.9874               859.5217
 Red. masses --     18.4723                18.4190                15.3925
 Frc consts  --      3.7565                 4.5990                 6.7000
 IR Inten    --      4.9616                 8.8960                54.3210
 Raman Activ --      1.0383                 1.0983                 0.9036

                      7                      8                      9
                      A                      A                      A
 Frequencies --    999.2070              1348.7603              1405.3056
 Red. masses --     15.2291                13.0829                13.1108
 Frc consts  --      8.9585                14.0224                15.2553
 IR Inten    --     52.0242               409.6224               414.0500
 Raman Activ --      7.5963                 1.6430                 1.5668

 - Thermochemistry -
 -------------------
 Temperature   298.150 Kelvin.  Pressure   1.00000 Atm.
 Atom     1 has atomic number  6 and mass  12.00000

 Molecular mass:    87.99361 amu.
 Principal axes and moments of inertia in atomic units:
                           1         2         3
     Eigenvalues --   296.58291********************
           X            1.00000   0.00001  -0.00003
           Y           -0.00001   1.00000  -0.00007
           Z            0.00003   0.00007   1.00000
 This molecule is an asymmetric top.
 Rotational symmetry number  1.
 Rotational temperatures (Kelvin)      0.29204     0.00687     0.00686
 Rotational constants (GHZ):           6.08512     0.14314     0.14291
    1 imaginary frequencies ignored.
 Zero-point vibrational energy      37473.4 (Joules/Mol)
                                    8.95635 (Kcal/Mol)
 Warning -- explicit consideration of   3 degrees of freedom as
           vibrations may cause significant error
 Vibrational temperatures:    265.67   329.66   845.28   936.62  1236.66
          (Kelvin)           1437.63  1940.56  2021.92

 Zero-point correction=                           0.014273 (Hartree/Particle)
 Thermal correction to Energy=                    0.018624
 Thermal correction to Enthalpy=                  0.019568
 Thermal correction to Gibbs Free Energy=        -0.017608
 Sum of electronic and zero-point Energies=           -435.071628
 Sum of electronic and thermal Energies=              -435.067276
 Sum of electronic and thermal Enthalpies=            -435.066332
 Sum of electronic and thermal Free Energies=         -435.103508

                     E (Thermal)             CV                S
                      KCal/Mol        Cal/Mol-Kelvin    Cal/Mol-Kelvin
 Total                   11.687             12.769             78.244
 Electronic               0.000              0.000              1.377
 Translational            0.889              2.981             39.337
 Rotational               0.889              2.981             32.224
 Vibrational              9.909              6.807              5.306
 Vibration     1          0.631              1.861              2.281
 Vibration     2          0.652              1.797              1.886
 Vibration     3          0.945              1.058              0.472

 1\1\GINC-TP-LINUX1\Freq\UHF\6-31G(d)\C1F4(1+,2)\THOMAS\04-Mar-2017\0\\
 #P UHF/6-31g* IOP(7/33=1) IOP(7/8=11) Freq\\Distorted Ethanol\\1,2\C,0
 .190327,4.927098,-1.347077\F,1.481734,4.859965,-1.273379\F,-0.35185,5.
 630976,-0.418612\F,-4.770514,-8.005763,4.375489\F,-0.05982,5.315358,-2
 .563514\\Version=ES64L-G09RevD.01\State=2-A\HF=-435.0859004\S2=0.75267
 3\S2-1=0.\S2A=0.750003\RMSD=6.682e-10\RMSF=7.476e-02\ZeroPoint=0.01427
 29\Thermal=0.0186243\Dipole=1.6998814,4.6701165,-2.1571534\DipoleDeriv
 =2.0894156,-0.3299483,0.0262361,-0.3363173,1.3492536,0.1029176,0.02231

 Normal termination of Gaussian 09 at Sat Mar  4 13:40:29 2017.
