 Gaussian 09, Revision D.01,
 Gaussian 09:  ES64L-G09RevD.01 24-Apr-2013

 ------------------------------------------
 #P UHF/6-31g* IOP(7/33=1) IOP(7/8=11) Freq
 ------------------------------------------

 -----------------
 Distorted Ethanol
 -----------------
 Symbolic Z-matrix:
 Charge =  1 Multiplicity = 2

                         Standard orientation:
 ---------------------------------------------------------------------
 Center     Atomic      Atomic             Coordinates (Angstroms)
 Number     Number       Type             X           Y           Z
 ---------------------------------------------------------------------
      1          6           0        3.515899    0.025006   -0.252514
      2          9           0        4.322651   -0.754727    0.312864
      3          9           0        2.266753   -0.503960   -0.266502
      4          9           0      -12.432660    0.000003    0.036611
      5          9           0        3.499323    1.242013    0.085370
 ---------------------------------------------------------------------

 SCF Done:  E(UHF) =  -435.102193453     A.U. after   13 cycles

 The electronic state is 2-A.
 Alpha  occ. eigenvalues --  -26.76107 -26.75972 -26.71506 -26.43405 -11.98103
 Alpha  occ. eigenvalues --   -2.13242  -2.05262  -1.98366  -1.68787  -1.31917
 Alpha  occ. eigenvalues --   -1.21548  -1.19771  -1.15632  -1.06517  -1.04270
 Alpha  occ. eigenvalues --   -1.03913  -1.00771  -1.00365  -0.85611  -0.74822
 Alpha  occ. eigenvalues --   -0.74819
 Alpha virt. eigenvalues --   -0.32700   0.04912   0.07487   0.12047   0.33363
 Alpha virt. eigenvalues --    0.34870   0.38643   0.39314   0.99878   1.01055
 Alpha virt. eigenvalues --    1.03501   1.04408   1.05108   1.05980   1.27303

  Beta  occ. eigenvalues --  -26.76107 -26.75972 -26.71506 -26.38630 -11.98103
  Beta  occ. eigenvalues --   -2.13242  -2.05262  -1.98366  -1.49596  -1.31917
  Beta  occ. eigenvalues --   -1.21548  -1.19771  -1.15632  -1.06517  -1.04270
  Beta  occ. eigenvalues --   -1.03913  -1.00771  -1.00365  -0.69657  -0.69655
  Beta virt. eigenvalues --   -0.32700   0.04912   0.06072   0.07487   0.12047
  Beta virt. eigenvalues --    0.33363   0.34870   0.38643   0.39314   0.99878
  Beta virt. eigenvalues --    1.01055   1.04408   1.05108   1.05980   1.06731

 Mulliken charges and spin densities:
               1          2
     1  C    1.341831   0.000000
     2  F   -0.083577   0.000000
     3  F   -0.168355   0.000000
     4  F    0.000000   1.000000
     5  F   -0.089898   0.000000
 Sum of Mulliken charges =   1.00000   1.00000

 Dipole moment (field-independent basis, Debye):
    X=             17.3618    Y=              0.2756    Z=             -1.4915  Tot=             17.4279
 Quadrupole moment (field-independent basis, Debye-Ang):
   XX=             41.3684   YY=            -21.0101   ZZ=            -19.5907
   XY=              0.8037   XZ=             -5.5223   YZ=              0.1943

  Exact polarizability:  13.681   0.134  13.859   0.898   0.010   9.922
 Approx polarizability:  12.745   0.049  12.978   0.528  -0.052   9.951

 ******    1 imaginary frequencies (negative Signs) ******

                      1                      2                      3
                      A                      A                      A
 Frequencies --     -0.5453               194.9830               214.9432
 Red. masses --     18.5913                18.9973                18.9501
 Frc consts  --      0.0000                 0.4255                 0.5158
 IR Inten    --      3.0540                 0.0308                 0.0378
 Raman Activ --      0.0000                 0.0331                 0.2454

                      4                      5                      6
                      A                      A                      A
 Frequencies --    588.3799               616.5832               848.6836
 Red. masses --     18.6618                18.3701                16.3108
 Frc consts  --      3.8064                 4.1148                 6.9217
 IR Inten    --      2.6852                 9.5109                43.8111
 Raman Activ --      1.3109                 1.0774                 1.4682

                      7                      8                      9
                      A                      A                      A
 Frequencies --    921.9009              1330.0161              1569.1337
 Red. masses --     13.8356                13.5444                13.2128
 Frc consts  --      6.9281                14.1164                19.1674
 IR Inten    --    116.0305               351.9982               458.9760
 Raman Activ --      6.2472                 1.7846                 0.9968

 - Thermochemistry -
 -------------------
 Temperature   298.150 Kelvin.  Pressure   1.00000 Atm.
 Atom     1 has atomic number  6 and mass  12.00000

 Molecular mass:    87.99361 amu.
 Principal axes and moments of inertia in atomic units:
                           1         2         3
     Eigenvalues --   175.33524********************
           X            1.00000   0.00002  -0.00016
           Y           -0.00002   1.00000  -0.00010
           Z            0.00016   0.00010   1.00000
 This molecule is an asymmetric top.
 Rotational symmetry number  1.
 Rotational temperatures (Kelvin)      0.49399     0.00643     0.00636
 Rotational constants (GHZ):          10.29309     0.13390     0.13247
    1 imaginary frequencies ignored.
 Zero-point vibrational energy      37590.4 (Joules/Mol)
                                    8.98432 (Kcal/Mol)
 Warning -- explicit consideration of   4 degrees of freedom as
           vibrations may cause significant error
 Vibrational temperatures:    280.54   309.25   846.55   887.12  1221.06
          (Kelvin)           1326.41  1913.59  2257.63

 Zero-point correction=                           0.014317 (Hartree/Particle)
 Thermal correction to Energy=                    0.018703
 Thermal correction to Enthalpy=                  0.019647
 Thermal correction to Gibbs Free Energy=        -0.017396
 Sum of electronic and zero-point Energies=           -435.087876
 Sum of electronic and thermal Energies=              -435.083491
 Sum of electronic and thermal Enthalpies=            -435.082547
 Sum of electronic and thermal Free Energies=         -435.119589

                     E (Thermal)             CV                S
                      KCal/Mol        Cal/Mol-Kelvin    Cal/Mol-Kelvin
 Total                   11.736             12.917             77.963
 Electronic               0.000              0.000              1.377
 Translational            0.889              2.981             39.337
 Rotational               0.889              2.981             31.843
 Vibrational              9.959              6.956              5.405
 Vibration     1          0.636              1.847              2.180
 Vibration     2          0.645              1.818              2.001
 Vibration     3          0.946              1.057              0.470
 Vibration     4          0.976              0.997              0.422

 1\1\GINC-TP-LINUX1\Freq\UHF\6-31G(d)\C1F4(1+,2)\THOMAS\04-Mar-2017\0\\
 #P UHF/6-31g* IOP(7/33=1) IOP(7/8=11) Freq\\Distorted Ethanol\\1,2\C,1
 .359507,4.771204,-1.570143\F,1.86179,5.800757,-1.054181\F,1.003461,3.8
 78974,-0.612268\F,-7.248916,-6.780434,5.277883\F,0.454322,4.900417,-2.
 44163\\Version=ES64L-G09RevD.01\State=2-A\HF=-435.1021935\S2=0.752673\
 S2-1=0.\S2A=0.750003\RMSD=7.232e-09\RMSF=6.960e-02\ZeroPoint=0.0143174
 \Thermal=0.0187026\Dipole=3.9276766,4.6291748,-3.1871593\DipoleDeriv=1
 .6886667,0.32242,0.4452378,0.3510218,2.0649446,-0.1715245,0.429369,-0.

 Normal termination of Gaussian 09 at Sat Mar  4 13:45:07 2017.
