 Gaussian 09, Revision D.01,
 Gaussian 09:  ES64L-G09RevD.01 24-Apr-2013

 ------------------------------------------
 #P UHF/6-31g* IOP(7/33=1) IOP(7/8=11) Freq
 ------------------------------------------

 -----------------
 Distorted Ethanol
 -----------------
 Symbolic Z-matrix:
 Charge =  1 Multiplicity = 2

                         Standard orientation:
 ---------------------------------------------------------------------
 Center     Atomic      Atomic             Coordinates (Angstroms)
 Number     Number       Type             X           Y           Z
 ---------------------------------------------------------------------
      1          6           0       -2.984793    0.039926   -0.199218
      2          9           0       -1.933617   -0.572546    0.255434
      3          9           0       -4.023064   -0.683082   -0.139620
      4          9           0       11.068180    0.004285   -0.028975
      5          9           0       -3.121637    1.224725    0.045972
 ---------------------------------------------------------------------

 SCF Done:  E(UHF) =  -435.132310024     A.U. after   13 cycles

 The electronic state is 2-A.
 Alpha  occ. eigenvalues --  -26.77011 -26.74103 -26.73242 -26.43872 -11.97179
 Alpha  occ. eigenvalues --   -2.15429  -2.05635  -2.01701  -1.69253  -1.32458
 Alpha  occ. eigenvalues --   -1.22639  -1.21912  -1.17182  -1.06529  -1.06000
 Alpha  occ. eigenvalues --   -1.04346  -1.02452  -1.01331  -0.86077  -0.75289
 Alpha  occ. eigenvalues --   -0.75285
 Alpha virt. eigenvalues --   -0.28883   0.05632   0.11417   0.14998   0.33447
 Alpha virt. eigenvalues --    0.35935   0.38568   0.41394   0.99282   1.01941
 Alpha virt. eigenvalues --    1.03035   1.03331   1.06990   1.07854   1.27301

  Beta  occ. eigenvalues --  -26.77011 -26.74103 -26.73242 -26.39097 -11.97179
  Beta  occ. eigenvalues --   -2.15429  -2.05635  -2.01701  -1.50062  -1.32458
  Beta  occ. eigenvalues --   -1.22639  -1.21912  -1.17182  -1.06529  -1.06000
  Beta  occ. eigenvalues --   -1.04346  -1.02452  -1.01331  -0.70124  -0.70121
  Beta virt. eigenvalues --   -0.28883   0.05607   0.05632   0.11417   0.14998
  Beta virt. eigenvalues --    0.33447   0.35935   0.38568   0.41394   0.99282
  Beta virt. eigenvalues --    1.01941   1.03331   1.06265   1.06990   1.07854

 Mulliken charges and spin densities:
               1          2
     1  C    1.306302   0.000000
     2  F   -0.138818   0.000000
     3  F   -0.111777   0.000000
     4  F    0.000000   1.000000
     5  F   -0.055707   0.000000
 Sum of Mulliken charges =   1.00000   1.00000

 Dipole moment (field-independent basis, Debye):
    X=            -14.3596    Y=              0.4946    Z=             -1.2887  Tot=             14.4258
 Quadrupole moment (field-independent basis, Debye-Ang):
   XX=             21.7083   YY=            -20.3649   ZZ=            -20.2098
   XY=             -1.4888   XZ=              3.7057   YZ=              0.2686

  Exact polarizability:  13.113  -0.168  13.427   0.809  -0.041   9.242
 Approx polarizability:  12.179  -0.153  12.587   0.630  -0.090   9.230

 ******    1 imaginary frequencies (negative Signs) ******

                      1                      2                      3
                      A                      A                      A
 Frequencies --     -0.7653               146.1077               195.5253
 Red. masses --     18.5912                18.9609                18.9508
 Frc consts  --      0.0000                 0.2385                 0.4269
 IR Inten    --      3.0556                 0.2155                 0.0932
 Raman Activ --      0.0000                 0.0192                 0.2146

                      4                      5                      6
                      A                      A                      A
 Frequencies --    606.9885               633.3980               870.2755
 Red. masses --     18.3248                18.2967                14.2535
 Frc consts  --      3.9779                 4.3249                 6.3604
 IR Inten    --      9.7643                11.9160                79.4966
 Raman Activ --      0.8745                 0.9005                 0.5565

                      7                      8                      9
                      A                      A                      A
 Frequencies --   1026.8524              1456.3674              1733.0163
 Red. masses --     16.2402                13.2390                13.3482
 Frc consts  --     10.0892                16.5443                23.6199
 IR Inten    --     54.6840               439.7825               481.9436
 Raman Activ --      5.3084                 0.9430                 0.6306

 - Thermochemistry -
 -------------------
 Temperature   298.150 Kelvin.  Pressure   1.00000 Atm.
 Atom     1 has atomic number  6 and mass  12.00000

 Molecular mass:    87.99361 amu.
 Principal axes and moments of inertia in atomic units:
                           1         2         3
     Eigenvalues --   163.37881********************
           X            1.00000  -0.00003   0.00013
           Y            0.00003   1.00000  -0.00013
           Z           -0.00013   0.00013   1.00000
 This molecule is an asymmetric top.
 Rotational symmetry number  1.
 Rotational temperatures (Kelvin)      0.53014     0.00808     0.00797
 Rotational constants (GHZ):          11.04636     0.16846     0.16616
    1 imaginary frequencies ignored.
 Zero-point vibrational energy      39886.7 (Joules/Mol)
                                    9.53314 (Kcal/Mol)
 Warning -- explicit consideration of   3 degrees of freedom as
           vibrations may cause significant error
 Vibrational temperatures:    210.22   281.32   873.32   911.32  1252.13
          (Kelvin)           1477.41  2095.39  2493.42

 Zero-point correction=                           0.015192 (Hartree/Particle)
 Thermal correction to Energy=                    0.019642
 Thermal correction to Enthalpy=                  0.020587
 Thermal correction to Gibbs Free Energy=        -0.016485
 Sum of electronic and zero-point Energies=           -435.117118
 Sum of electronic and thermal Energies=              -435.112668
 Sum of electronic and thermal Enthalpies=            -435.111723
 Sum of electronic and thermal Free Energies=         -435.148795

                     E (Thermal)             CV                S
                      KCal/Mol        Cal/Mol-Kelvin    Cal/Mol-Kelvin
 Total                   12.326             12.704             78.024
 Electronic               0.000              0.000              1.377
 Translational            0.889              2.981             39.337
 Rotational               0.889              2.981             31.320
 Vibrational             10.548              6.742              5.990
 Vibration     1          0.617              1.907              2.722
 Vibration     2          0.636              1.846              2.175
 Vibration     3          0.966              1.017              0.438

 1\1\GINC-TP-LINUX1\Freq\UHF\6-31G(d)\C1F4(1+,2)\THOMAS\04-Mar-2017\0\\
 #P UHF/6-31g* IOP(7/33=1) IOP(7/8=11) Freq\\Distorted Ethanol\\1,2\C,-
 0.427922,5.250711,-0.748525\F,0.104864,4.234585,-0.139898\F,0.114245,6
 .345964,-0.415694\F,-2.287758,-8.208942,2.842442\F,-0.753179,5.127255,
 -1.915384\\Version=ES64L-G09RevD.01\State=2-A\HF=-435.13231\S2=0.75267
 3\S2-1=0.\S2A=0.750003\RMSD=6.849e-09\RMSF=5.452e-02\ZeroPoint=0.01519
 2\Thermal=0.0196424\Dipole=0.2811147,5.4896878,-1.4127846\DipoleDeriv=
 1.4768198,0.0860356,0.4451724,0.078932,2.3131251,-0.0085279,0.4668138,

 Normal termination of Gaussian 09 at Sat Mar  4 13:38:53 2017.
