 Gaussian 09, Revision D.01,
 Gaussian 09:  ES64L-G09RevD.01 24-Apr-2013

 ------------------------------------------
 #P UHF/6-31g* IOP(7/33=1) IOP(7/8=11) Freq
 ------------------------------------------

 -----------------
 Distorted Ethanol
 -----------------
 Symbolic Z-matrix:
 Charge =  1 Multiplicity = 2

                         Standard orientation:
 ---------------------------------------------------------------------
 Center     Atomic      Atomic             Coordinates (Angstroms)
 Number     Number       Type             X           Y           Z
 ---------------------------------------------------------------------
      1          6           0        3.855935    0.085540   -0.063579
      2          9           0        3.187227    1.171515   -0.272397
      3          9           0        3.929162   -0.330036    1.079350
      4          9           0      -13.341042   -0.036843    0.024452
      5          9           0        3.654030   -0.861663   -0.789019
 ---------------------------------------------------------------------

 SCF Done:  E(UHF) =  -435.119886778     A.U. after   13 cycles

 The electronic state is 2-A.
 Alpha  occ. eigenvalues --  -26.75029 -26.74627 -26.73882 -26.43174 -11.96465
 Alpha  occ. eigenvalues --   -2.17518  -2.05481  -2.03359  -1.68556  -1.32714
 Alpha  occ. eigenvalues --   -1.23432  -1.22750  -1.18293  -1.07163  -1.06223
 Alpha  occ. eigenvalues --   -1.03437  -1.03266  -1.01470  -0.85380  -0.74590
 Alpha  occ. eigenvalues --   -0.74588
 Alpha virt. eigenvalues --   -0.29253   0.08258   0.12287   0.16392   0.32712
 Alpha virt. eigenvalues --    0.36344   0.40067   0.43990   0.99990   1.01772
 Alpha virt. eigenvalues --    1.02532   1.03733   1.05833   1.09057   1.27625

  Beta  occ. eigenvalues --  -26.75029 -26.74627 -26.73882 -26.38399 -11.96465
  Beta  occ. eigenvalues --   -2.17518  -2.05481  -2.03359  -1.49365  -1.32714
  Beta  occ. eigenvalues --   -1.23432  -1.22750  -1.18293  -1.07163  -1.06223
  Beta  occ. eigenvalues --   -1.03437  -1.03266  -1.01470  -0.69426  -0.69424
  Beta virt. eigenvalues --   -0.29253   0.06303   0.08258   0.12287   0.16392
  Beta virt. eigenvalues --    0.32712   0.36344   0.40067   0.43990   0.99990
  Beta virt. eigenvalues --    1.01772   1.02532   1.05833   1.06963   1.09057

 Mulliken charges and spin densities:
               1          2
     1  C    1.259492   0.000000
     2  F   -0.133907   0.000000
     3  F   -0.068098   0.000000
     4  F    0.000000   1.000000
     5  F   -0.057486   0.000000
 Sum of Mulliken charges =   1.00000   1.00000

 Dipole moment (field-independent basis, Debye):
    X=             18.8891    Y=              0.3955    Z=             -0.3886  Tot=             18.8972
 Quadrupole moment (field-independent basis, Debye-Ang):
   XX=             53.7076   YY=            -21.0263   ZZ=            -20.4058
   XY=              1.7453   XZ=             -1.6480   YZ=              0.1160

  Exact polarizability:   9.667  -1.246  13.125   0.711  -0.069  12.248
 Approx polarizability:   9.633  -0.965  12.300   0.497  -0.135  11.370

 ******    2 imaginary frequencies (negative Signs) ******

                      1                      2                      3
                      A                      A                      A
 Frequencies --   -174.7190                -0.4540               187.7106
 Red. masses --     18.9766                18.5913                18.9468
 Frc consts  --      0.3413                 0.0000                 0.3933
 IR Inten    --      0.0216                 3.0533                 0.1790
 Raman Activ --      0.1319                 0.0000                 0.2221

                      4                      5                      6
                      A                      A                      A
 Frequencies --    601.1895               681.4858               863.5259
 Red. masses --     18.0438                18.3590                13.7386
 Frc consts  --      3.8424                 5.0236                 6.0359
 IR Inten    --     14.6571                12.1752                90.9428
 Raman Activ --      0.7555                 0.9987                 0.7012

                      7                      8                      9
                      A                      A                      A
 Frequencies --   1095.7262              1643.7488              1800.3702
 Red. masses --     16.5674                13.6205                13.3479
 Frc consts  --     11.7195                21.6828                25.4909
 IR Inten    --     73.0164               406.1757               490.2412
 Raman Activ --      4.6922                 1.2991                 0.6334

 - Thermochemistry -
 -------------------
 Temperature   298.150 Kelvin.  Pressure   1.00000 Atm.
 Atom     1 has atomic number  6 and mass  12.00000

 Molecular mass:    87.99361 amu.
 Principal axes and moments of inertia in atomic units:
                           1         2         3
     Eigenvalues --   277.80356********************
           X            1.00000   0.00005  -0.00004
           Y           -0.00005   1.00000  -0.00053
           Z            0.00004   0.00053   1.00000
 This molecule is an asymmetric top.
 Rotational symmetry number  1.
 Rotational temperatures (Kelvin)      0.31178     0.00559     0.00559
 Rotational constants (GHZ):           6.49647     0.11658     0.11639
    2 imaginary frequencies ignored.
 Zero-point vibrational energy      41114.2 (Joules/Mol)
                                    9.82653 (Kcal/Mol)
 Warning -- explicit consideration of   2 degrees of freedom as
           vibrations may cause significant error
 Vibrational temperatures:    270.07   864.98   980.50  1242.42  1576.50
          (Kelvin)           2364.98  2590.33

 Zero-point correction=                           0.015660 (Hartree/Particle)
 Thermal correction to Energy=                    0.019443
 Thermal correction to Enthalpy=                  0.020388
 Thermal correction to Gibbs Free Energy=        -0.015980
 Sum of electronic and zero-point Energies=           -435.104227
 Sum of electronic and thermal Energies=              -435.100443
 Sum of electronic and thermal Enthalpies=            -435.099499
 Sum of electronic and thermal Free Energies=         -435.135867

                     E (Thermal)             CV                S
                      KCal/Mol        Cal/Mol-Kelvin    Cal/Mol-Kelvin
 Total                   12.201             10.618             76.542
 Electronic               0.000              0.000              1.377
 Translational            0.889              2.981             39.337
 Rotational               0.889              2.981             32.567
 Vibrational             10.423              4.657              3.261
 Vibration     1          0.632              1.857              2.250
 Vibration     2          0.959              1.029              0.448

 1\1\GINC-TP-LINUX1\Freq\UHF\6-31G(d)\C1F4(1+,2)\THOMAS\04-Mar-2017\0\\
 #P UHF/6-31g* IOP(7/33=1) IOP(7/8=11) Freq\\Distorted Ethanol\\1,2\C,-
 0.695515,6.209673,-0.631439\F,-1.117222,5.757404,0.503345\F,0.506281,6
 .22179,-0.831169\F,-0.917974,-10.689422,2.551303\F,-1.234136,5.817945,
 -1.641715\\Version=ES64L-G09RevD.01\State=2-A\HF=-435.1198868\S2=0.752
 673\S2-1=0.\S2A=0.750003\RMSD=6.062e-09\RMSF=5.584e-02\ZeroPoint=0.015
 6596\Thermal=0.0194434\Dipole=-0.0359124,7.3204772,-1.2979885\DipoleDe
 riv=2.3301991,0.2621616,0.0270124,0.2528098,1.3090196,0.0116329,0.0340

 Normal termination of Gaussian 09 at Sat Mar  4 13:44:06 2017.
