 Gaussian 09, Revision D.01,
 Gaussian 09:  ES64L-G09RevD.01 24-Apr-2013

 ------------------------------------------
 #P UHF/6-31g* IOP(7/33=1) IOP(7/8=11) Freq
 ------------------------------------------

 -----------------
 Distorted Ethanol
 -----------------
 Symbolic Z-matrix:
 Charge =  1 Multiplicity = 2

                         Standard orientation:
 ---------------------------------------------------------------------
 Center     Atomic      Atomic             Coordinates (Angstroms)
 Number     Number       Type             X           Y           Z
 ---------------------------------------------------------------------
      1          6           0       -2.655455    0.000912   -0.064929
      2          9           0       -3.115609    1.120809   -0.407031
      3          9           0       -2.563818   -0.153076    1.153706
      4          9           0       10.662914   -0.000742   -0.049389
      5          9           0       -3.213185   -0.967600   -0.654001
 ---------------------------------------------------------------------

 SCF Done:  E(UHF) =  -435.118664982     A.U. after   13 cycles

 The electronic state is 2-A.
 Alpha  occ. eigenvalues --  -26.75238 -26.74198 -26.73910 -26.44113 -11.96913
 Alpha  occ. eigenvalues --   -2.15621  -2.04808  -2.03351  -1.69494  -1.32327
 Alpha  occ. eigenvalues --   -1.22479  -1.22309  -1.17310  -1.06560  -1.06323
 Alpha  occ. eigenvalues --   -1.03386  -1.02753  -1.01417  -0.86318  -0.75530
 Alpha  occ. eigenvalues --   -0.75526
 Alpha virt. eigenvalues --   -0.31015   0.11499   0.11816   0.12813   0.32704
 Alpha virt. eigenvalues --    0.37065   0.38439   0.41013   1.00675   1.01646
 Alpha virt. eigenvalues --    1.02794   1.03063   1.05702   1.06145   1.27607

  Beta  occ. eigenvalues --  -26.75238 -26.74198 -26.73910 -26.39338 -11.96913
  Beta  occ. eigenvalues --   -2.15621  -2.04808  -2.03351  -1.50303  -1.32327
  Beta  occ. eigenvalues --   -1.22479  -1.22309  -1.17310  -1.06560  -1.06323
  Beta  occ. eigenvalues --   -1.03386  -1.02753  -1.01417  -0.70366  -0.70361
  Beta virt. eigenvalues --   -0.31015   0.05366   0.11499   0.11816   0.12813
  Beta virt. eigenvalues --    0.32704   0.37065   0.38439   0.41013   1.00675
  Beta virt. eigenvalues --    1.01646   1.03063   1.05702   1.06024   1.06145

 Mulliken charges and spin densities:
               1          2
     1  C    1.286561   0.000000
     2  F   -0.103115   0.000000
     3  F   -0.074730   0.000000
     4  F    0.000000   1.000000
     5  F   -0.108716   0.000000
 Sum of Mulliken charges =   1.00000   1.00000

 Dipole moment (field-independent basis, Debye):
    X=            -12.3277    Y=              0.0112    Z=             -0.3437  Tot=             12.3325
 Quadrupole moment (field-independent basis, Debye-Ang):
   XX=             11.1105   YY=            -21.1355   ZZ=            -20.4559
   XY=             -0.0390   XZ=              0.6613   YZ=             -0.3799

  Exact polarizability:   9.808   0.026  13.111   1.165  -0.083  12.630
 Approx polarizability:   9.869   0.020  12.164   0.828  -0.083  11.827

 ******    1 imaginary frequencies (negative Signs) ******

                      1                      2                      3
                      A                      A                      A
 Frequencies --     -0.9028               112.3935               155.3919
 Red. masses --     18.5912                18.8868                18.8982
 Frc consts  --      0.0000                 0.1406                 0.2689
 IR Inten    --      3.0566                 0.3473                 0.2502
 Raman Activ --      0.0000                 0.1718                 0.1766

                      4                      5                      6
                      A                      A                      A
 Frequencies --    639.9945               643.0718               863.5521
 Red. masses --     18.1927                18.2129                14.1736
 Frc consts  --      4.3904                 4.4376                 6.2274
 IR Inten    --     13.5492                13.4622                80.6666
 Raman Activ --      0.7871                 0.7713                 0.7127

                      7                      8                      9
                      A                      A                      A
 Frequencies --   1118.8180              1553.3286              1672.0450
 Red. masses --     16.5819                13.2198                13.2772
 Frc consts  --     12.2293                18.7933                21.8701
 IR Inten    --     36.7570               453.5781               469.0990
 Raman Activ --      5.7400                 1.0326                 0.9190

 - Thermochemistry -
 -------------------
 Temperature   298.150 Kelvin.  Pressure   1.00000 Atm.
 Atom     1 has atomic number  6 and mass  12.00000

 Molecular mass:    87.99361 amu.
 Principal axes and moments of inertia in atomic units:
                           1         2         3
     Eigenvalues --   281.244429951.710699971.13904
           X            1.00000   0.00000   0.00004
           Y            0.00000   1.00000  -0.00001
           Z           -0.00004   0.00001   1.00000
 This molecule is an asymmetric top.
 Rotational symmetry number  1.
 Rotational temperatures (Kelvin)      0.30797     0.00870     0.00869
 Rotational constants (GHZ):           6.41698     0.18135     0.18100
    1 imaginary frequencies ignored.
 Zero-point vibrational energy      40425.4 (Joules/Mol)
                                    9.66190 (Kcal/Mol)
 Warning -- explicit consideration of   2 degrees of freedom as
           vibrations may cause significant error
 Vibrational temperatures:    161.71   223.57   920.81   925.24  1242.46
          (Kelvin)           1609.73  2234.89  2405.70

 Zero-point correction=                           0.015397 (Hartree/Particle)
 Thermal correction to Energy=                    0.019943
 Thermal correction to Enthalpy=                  0.020888
 Thermal correction to Gibbs Free Energy=        -0.016766
 Sum of electronic and zero-point Energies=           -435.103268
 Sum of electronic and thermal Energies=              -435.098722
 Sum of electronic and thermal Enthalpies=            -435.097777
 Sum of electronic and thermal Free Energies=         -435.135431

                     E (Thermal)             CV                S
                      KCal/Mol        Cal/Mol-Kelvin    Cal/Mol-Kelvin
 Total                   12.515             12.606             79.249
 Electronic               0.000              0.000              1.377
 Translational            0.889              2.981             39.337
 Rotational               0.889              2.981             31.701
 Vibrational             10.737              6.645              6.833
 Vibration     1          0.607              1.939              3.227
 Vibration     2          0.620              1.897              2.605

 1\1\GINC-TP-LINUX1\Freq\UHF\6-31G(d)\C1F4(1+,2)\THOMAS\04-Mar-2017\0\\
 #P UHF/6-31g* IOP(7/33=1) IOP(7/8=11) Freq\\Distorted Ethanol\\1,2\C,0
 .434053,4.679611,-1.022368\F,1.689659,4.715175,-0.950725\F,-0.138247,5
 .224888,-0.077737\F,-4.412388,-6.698032,3.92136\F,-0.010454,5.031976,-
 2.151233\\Version=ES64L-G09RevD.01\State=2-A\HF=-435.118665\S2=0.75267
 3\S2-1=0.\S2A=0.750003\RMSD=4.531e-09\RMSF=5.662e-02\ZeroPoint=0.01539
 72\Thermal=0.0199433\Dipole=1.8112694,4.0791942,-1.9029814\DipoleDeriv
 =2.2822287,-0.2550662,0.0035131,-0.259667,1.3167759,0.105261,0.0022419

 Normal termination of Gaussian 09 at Sat Mar  4 13:43:19 2017.
