 Gaussian 09, Revision D.01,
 Gaussian 09:  ES64L-G09RevD.01 24-Apr-2013

 ------------------------------------------
 #P UHF/6-31g* IOP(7/33=1) IOP(7/8=11) Freq
 ------------------------------------------

 -----------------
 Distorted Ethanol
 -----------------
 Symbolic Z-matrix:
 Charge =  1 Multiplicity = 2

                         Standard orientation:
 ---------------------------------------------------------------------
 Center     Atomic      Atomic             Coordinates (Angstroms)
 Number     Number       Type             X           Y           Z
 ---------------------------------------------------------------------
      1          6           0       -3.508894    0.005308    0.098464
      2          9           0       -4.650330   -0.576780    0.025702
      3          9           0       -2.448970   -0.634014   -0.072048
      4          9           0       12.909692   -0.001950    0.006497
      5          9           0       -3.471129    1.209205   -0.025794
 ---------------------------------------------------------------------

 SCF Done:  E(UHF) =  -435.159574002     A.U. after   47 cycles

 The electronic state is 2-A.
 Alpha  occ. eigenvalues --  -26.76354 -26.75177 -26.73995 -26.43337 -11.96703
 Alpha  occ. eigenvalues --   -2.16013  -2.06302  -2.03665  -1.68718  -1.32625
 Alpha  occ. eigenvalues --   -1.23371  -1.22991  -1.17895  -1.06914  -1.06636
 Alpha  occ. eigenvalues --   -1.04940  -1.03715  -1.02355  -0.85542  -0.74753
 Alpha  occ. eigenvalues --   -0.74751
 Alpha virt. eigenvalues --   -0.23417  -0.00888   0.16640   0.17357   0.33954
 Alpha virt. eigenvalues --    0.36924   0.39020   0.42033   0.99626   1.01152
 Alpha virt. eigenvalues --    1.02284   1.03570   1.09606   1.11839   1.26888

  Beta  occ. eigenvalues --  -26.76354 -26.75177 -26.73995 -26.38562 -11.96703
  Beta  occ. eigenvalues --   -2.16013  -2.06302  -2.03665  -1.49527  -1.32625
  Beta  occ. eigenvalues --   -1.23371  -1.22991  -1.17895  -1.06914  -1.06636
  Beta  occ. eigenvalues --   -1.04940  -1.03715  -1.02355  -0.69588  -0.69586
  Beta virt. eigenvalues --   -0.23417  -0.00888   0.06141   0.16640   0.17357
  Beta virt. eigenvalues --    0.33954   0.36924   0.39020   0.42033   0.99626
  Beta virt. eigenvalues --    1.01152   1.02284   1.06800   1.09606   1.11839

 Mulliken charges and spin densities:
               1          2
     1  C    1.294942   0.000000
     2  F   -0.134193   0.000000
     3  F   -0.101951   0.000000
     4  F    0.000000   1.000000
     5  F   -0.058798   0.000000
 Sum of Mulliken charges =   1.00000   1.00000

 Dipole moment (field-independent basis, Debye):
    X=            -16.7413    Y=              0.1848    Z=              0.6256  Tot=             16.7540
 Quadrupole moment (field-independent basis, Debye-Ang):
   XX=             37.2936   YY=            -21.0008   ZZ=            -19.8909
   XY=             -0.6881   XZ=             -2.1677   YZ=             -0.2177

  Exact polarizability:  13.457   0.104  12.770  -0.199  -0.035   8.697
 Approx polarizability:  12.595   0.090  11.946  -0.165  -0.029   8.516

 ******    1 imaginary frequencies (negative Signs) ******

                      1                      2                      3
                      A                      A                      A
 Frequencies --     -0.5168               149.3645               201.3998
 Red. masses --     18.5913                18.9887                18.9890
 Frc consts  --      0.0000                 0.2496                 0.4538
 IR Inten    --      3.0538                 0.0914                 0.0221
 Raman Activ --      0.0000                 0.0010                 0.2506

                      4                      5                      6
                      A                      A                      A
 Frequencies --    608.8671               627.4576               894.4453
 Red. masses --     18.2107                18.2983                13.3299
 Frc consts  --      3.9776                 4.2445                 6.2833
 IR Inten    --     12.0636                12.0954               103.1217
 Raman Activ --      0.8941                 0.8269                 0.2018

                      7                      8                      9
                      A                      A                      A
 Frequencies --   1027.6692              1563.0252              1799.2969
 Red. masses --     17.6554                13.2529                13.3109
 Frc consts  --     10.9859                19.0763                25.3900
 IR Inten    --     30.7236               474.0566               509.8295
 Raman Activ --      4.1648                 0.3849                 0.3064

 - Thermochemistry -
 -------------------
 Temperature   298.150 Kelvin.  Pressure   1.00000 Atm.
 Atom     1 has atomic number  6 and mass  12.00000

 Molecular mass:    87.99361 amu.
 Principal axes and moments of inertia in atomic units:
                           1         2         3
     Eigenvalues --   149.90439********************
           X            1.00000   0.00000  -0.00006
           Y            0.00000   1.00000   0.00001
           Z            0.00006  -0.00001   1.00000
 This molecule is an asymmetric top.
 Rotational symmetry number  1.
 Rotational temperatures (Kelvin)      0.57779     0.00596     0.00590
 Rotational constants (GHZ):          12.03928     0.12424     0.12298
    1 imaginary frequencies ignored.
 Zero-point vibrational energy      41100.9 (Joules/Mol)
                                    9.82334 (Kcal/Mol)
 Warning -- explicit consideration of   3 degrees of freedom as
           vibrations may cause significant error
 Vibrational temperatures:    214.90   289.77   876.02   902.77  1286.91
          (Kelvin)           1478.58  2248.84  2588.78

 Zero-point correction=                           0.015654 (Hartree/Particle)
 Thermal correction to Energy=                    0.020084
 Thermal correction to Enthalpy=                  0.021028
 Thermal correction to Gibbs Free Energy=        -0.016236
 Sum of electronic and zero-point Energies=           -435.143920
 Sum of electronic and thermal Energies=              -435.139490
 Sum of electronic and thermal Enthalpies=            -435.138546
 Sum of electronic and thermal Free Energies=         -435.175810

                     E (Thermal)             CV                S
                      KCal/Mol        Cal/Mol-Kelvin    Cal/Mol-Kelvin
 Total                   12.603             12.631             78.429
 Electronic               0.000              0.000              1.377
 Translational            0.889              2.981             39.337
 Rotational               0.889              2.981             31.836
 Vibrational             10.825              6.669              5.879
 Vibration     1          0.618              1.903              2.680
 Vibration     2          0.638              1.838              2.120
 Vibration     3          0.968              1.013              0.435

 1\1\GINC-TP-LINUX1\Freq\UHF\6-31G(d)\C1F4(1+,2)\THOMAS\04-Mar-2017\0\\
 #P UHF/6-31g* IOP(7/33=1) IOP(7/8=11) Freq\\Distorted Ethanol\\1,2\C,1
 .27323,4.805431,-1.650239\F,2.136919,5.754424,-1.629054\F,0.880311,4.2
 69762,-0.591976\F,-7.869861,-6.770815,5.558984\F,0.58586,4.678751,-2.6
 39031\\Version=ES64L-G09RevD.01\State=2-A\HF=-435.159574\S2=0.752673\S
 2-1=0.\S2A=0.750003\RMSD=3.232e-09\RMSF=3.520e-02\ZeroPoint=0.0156545\
 Thermal=0.020084\Dipole=3.7760203,4.4892168,-3.0061131\DipoleDeriv=1.9
 322787,0.5348926,0.2033878,0.5254856,1.8020935,-0.2006298,0.199101,-0.

 Normal termination of Gaussian 09 at Sat Mar  4 13:44:37 2017.
