 Gaussian 09, Revision D.01,
 Gaussian 09:  ES64L-G09RevD.01 24-Apr-2013

 ------------------------------------------
 #P UHF/6-31g* IOP(7/33=1) IOP(7/8=11) Freq
 ------------------------------------------

 -----------------
 Distorted Ethanol
 -----------------
 Symbolic Z-matrix:
 Charge =  1 Multiplicity = 2

                         Standard orientation:
 ---------------------------------------------------------------------
 Center     Atomic      Atomic             Coordinates (Angstroms)
 Number     Number       Type             X           Y           Z
 ---------------------------------------------------------------------
      1          6           0        3.046247   -0.021701   -0.212207
      2          9           0        4.010021   -0.807466   -0.322049
      3          9           0        2.123040   -0.368863    0.567029
      4          9           0      -11.556635   -0.001677   -0.058178
      5          9           0        3.392742    1.192474   -0.045330
 ---------------------------------------------------------------------

 SCF Done:  E(UHF) =  -435.122288138     A.U. after   33 cycles

 The electronic state is 2-A.
 Alpha  occ. eigenvalues --  -26.75269 -26.74745 -26.73650 -26.43741 -11.97186
 Alpha  occ. eigenvalues --   -2.14728  -2.04777  -2.02847  -1.69123  -1.32160
 Alpha  occ. eigenvalues --   -1.22302  -1.21731  -1.16817  -1.06579  -1.05955
 Alpha  occ. eigenvalues --   -1.03648  -1.02631  -1.01462  -0.85946  -0.75158
 Alpha  occ. eigenvalues --   -0.75155
 Alpha virt. eigenvalues --   -0.30783   0.09546   0.10959   0.13096   0.33036
 Alpha virt. eigenvalues --    0.36842   0.38248   0.40011   1.00786   1.01362
 Alpha virt. eigenvalues --    1.03166   1.03266   1.05893   1.06419   1.27780

  Beta  occ. eigenvalues --  -26.75269 -26.74745 -26.73650 -26.38966 -11.97186
  Beta  occ. eigenvalues --   -2.14728  -2.04777  -2.02847  -1.49931  -1.32160
  Beta  occ. eigenvalues --   -1.22302  -1.21731  -1.16817  -1.06579  -1.05955
  Beta  occ. eigenvalues --   -1.03648  -1.02631  -1.01462  -0.69993  -0.69990
  Beta virt. eigenvalues --   -0.30783   0.05737   0.09546   0.10959   0.13096
  Beta virt. eigenvalues --    0.33036   0.36842   0.38248   0.40011   1.00786
  Beta virt. eigenvalues --    1.01362   1.03266   1.05893   1.06396   1.06419

 Mulliken charges and spin densities:
               1          2
     1  C    1.304718   0.000000
     2  F   -0.089061   0.000000
     3  F   -0.098588   0.000000
     4  F    0.000000   1.000000
     5  F   -0.117069   0.000000
 Sum of Mulliken charges =   1.00000   1.00000

 Dipole moment (field-independent basis, Debye):
    X=             14.4752    Y=             -0.2352    Z=             -1.3746  Tot=             14.5422
 Quadrupole moment (field-independent basis, Debye-Ang):
   XX=             22.6731   YY=            -20.5939   ZZ=            -20.2586
   XY=             -0.7959   XZ=             -3.9214   YZ=             -0.2107

  Exact polarizability:  12.510  -0.035  13.295  -1.518  -0.011  10.059
 Approx polarizability:  11.800  -0.040  12.338  -1.120   0.033  10.008

 ******    1 imaginary frequencies (negative Signs) ******

                      1                      2                      3
                      A                      A                      A
 Frequencies --     -0.6998               144.6907               165.7538
 Red. masses --     18.5913                18.9480                18.9221
 Frc consts  --      0.0000                 0.2337                 0.3063
 IR Inten    --      3.0551                 0.1620                 0.1922
 Raman Activ --      0.0000                 0.0615                 0.1974

                      4                      5                      6
                      A                      A                      A
 Frequencies --    622.4101               641.7658               868.4392
 Red. masses --     18.2897                18.2506                14.3432
 Frc consts  --      4.1746                 4.4287                 6.3735
 IR Inten    --     11.0226                12.5716                76.9278
 Raman Activ --      0.8248                 0.8359                 0.6559

                      7                      8                      9
                      A                      A                      A
 Frequencies --   1081.3644              1522.0780              1613.4036
 Red. masses --     16.3877                13.2428                13.2159
 Frc consts  --     11.2905                18.0760                20.2690
 IR Inten    --     38.0550               449.8407               467.9117
 Raman Activ --      5.7922                 1.0138                 0.8741

 - Thermochemistry -
 -------------------
 Temperature   298.150 Kelvin.  Pressure   1.00000 Atm.
 Atom     1 has atomic number  6 and mass  12.00000

 Molecular mass:    87.99361 amu.
 Principal axes and moments of inertia in atomic units:
                           1         2         3
     Eigenvalues --   181.10842********************
           X            1.00000  -0.00001  -0.00013
           Y            0.00001   1.00000   0.00009
           Z            0.00013  -0.00009   1.00000
 This molecule is an asymmetric top.
 Rotational symmetry number  1.
 Rotational temperatures (Kelvin)      0.47824     0.00742     0.00735
 Rotational constants (GHZ):           9.96498     0.15468     0.15312
    1 imaginary frequencies ignored.
 Zero-point vibrational energy      39835.1 (Joules/Mol)
                                    9.52081 (Kcal/Mol)
 Warning -- explicit consideration of   2 degrees of freedom as
           vibrations may cause significant error
 Vibrational temperatures:    208.18   238.48   895.51   923.36  1249.49
          (Kelvin)           1555.84  2189.93  2321.33

 Zero-point correction=                           0.015172 (Hartree/Particle)
 Thermal correction to Energy=                    0.019656
 Thermal correction to Enthalpy=                  0.020600
 Thermal correction to Gibbs Free Energy=        -0.016729
 Sum of electronic and zero-point Energies=           -435.107116
 Sum of electronic and thermal Energies=              -435.102633
 Sum of electronic and thermal Enthalpies=            -435.101688
 Sum of electronic and thermal Free Energies=         -435.139018

                     E (Thermal)             CV                S
                      KCal/Mol        Cal/Mol-Kelvin    Cal/Mol-Kelvin
 Total                   12.334             12.644             78.566
 Electronic               0.000              0.000              1.377
 Translational            0.889              2.981             39.337
 Rotational               0.889              2.981             31.588
 Vibrational             10.557              6.683              6.263
 Vibration     1          0.616              1.908              2.741
 Vibration     2          0.624              1.885              2.483

 1\1\GINC-TP-LINUX1\Freq\UHF\6-31G(d)\C1F4(1+,2)\THOMAS\04-Mar-2017\0\\
 #P UHF/6-31g* IOP(7/33=1) IOP(7/8=11) Freq\\Distorted Ethanol\\1,2\C,0
 .837109,4.595972,-1.251357\F,1.852714,5.303324,-1.088406\F,0.138608,4.
 370554,-0.230904\F,-6.142559,-6.718085,4.793858\F,0.133395,4.935476,-2
 .257166\\Version=ES64L-G09RevD.01\State=2-A\HF=-435.1222881\S2=0.75267
 3\S2-1=0.\S2A=0.750003\RMSD=6.450e-09\RMSF=5.638e-02\ZeroPoint=0.01517
 24\Thermal=0.0196555\Dipole=3.0728803,4.1150995,-2.5213512\DipoleDeriv
 =2.2031433,0.3699573,0.0865157,0.376055,1.4628256,-0.2364209,0.0906229

 Normal termination of Gaussian 09 at Sat Mar  4 13:43:48 2017.
