 Gaussian 09, Revision D.01,
 Gaussian 09:  ES64L-G09RevD.01 24-Apr-2013

 ------------------------------------------
 #P UHF/6-31g* IOP(7/33=1) IOP(7/8=11) Freq
 ------------------------------------------

 -----------------
 Distorted Ethanol
 -----------------
 Symbolic Z-matrix:
 Charge =  1 Multiplicity = 2

                         Standard orientation:
 ---------------------------------------------------------------------
 Center     Atomic      Atomic             Coordinates (Angstroms)
 Number     Number       Type             X           Y           Z
 ---------------------------------------------------------------------
      1          6           0        3.200651    0.015341    0.227207
      2          9           0        2.015969   -0.591640   -0.067020
      3          9           0        4.156411   -0.642024   -0.034749
      4          9           0      -11.510343    0.006227    0.003127
      5          9           0        3.204196    1.217210   -0.052829
 ---------------------------------------------------------------------

 SCF Done:  E(UHF) =  -435.116600163     A.U. after  107 cycles

 The electronic state is 2-A.
 Alpha  occ. eigenvalues --  -26.77816 -26.75770 -26.70583 -26.43676 -11.97062
 Alpha  occ. eigenvalues --   -2.17548  -2.07884  -1.97848  -1.69057  -1.33197
 Alpha  occ. eigenvalues --   -1.23847  -1.21833  -1.18236  -1.07472  -1.05399
 Alpha  occ. eigenvalues --   -1.04150  -1.00532  -1.00074  -0.85881  -0.75092
 Alpha  occ. eigenvalues --   -0.75089
 Alpha virt. eigenvalues --   -0.29494   0.05091   0.10676   0.15424   0.33138
 Alpha virt. eigenvalues --    0.34606   0.40391   0.44265   0.98267   1.00519
 Alpha virt. eigenvalues --    1.03231   1.04613   1.06589   1.07806   1.26435

  Beta  occ. eigenvalues --  -26.77816 -26.75770 -26.70583 -26.38901 -11.97062
  Beta  occ. eigenvalues --   -2.17548  -2.07884  -1.97848  -1.49866  -1.33197
  Beta  occ. eigenvalues --   -1.23847  -1.21833  -1.18236  -1.07472  -1.05399
  Beta  occ. eigenvalues --   -1.04150  -1.00532  -1.00074  -0.69928  -0.69925
  Beta virt. eigenvalues --   -0.29494   0.05091   0.05803   0.10676   0.15424
  Beta virt. eigenvalues --    0.33138   0.34606   0.40391   0.44265   0.98267
  Beta virt. eigenvalues --    1.00519   1.04613   1.06461   1.06589   1.07806

 Mulliken charges and spin densities:
               1          2
     1  C    1.280442   0.000000
     2  F   -0.185233   0.000000
     3  F   -0.019921   0.000000
     4  F    0.000000   1.000000
     5  F   -0.075288   0.000000
 Sum of Mulliken charges =   1.00000   1.00000

 Dipole moment (field-independent basis, Debye):
    X=             15.9457    Y=              0.1953    Z=              1.4381  Tot=             16.0116
 Quadrupole moment (field-independent basis, Debye-Ang):
   XX=             31.6328   YY=            -20.3443   ZZ=            -20.1829
   XY=              0.3187   XZ=              4.6550   YZ=              0.2758

  Exact polarizability:  13.506   0.403  13.361   0.374   0.150   9.168
 Approx polarizability:  12.497   0.266  12.461   0.406   0.155   9.232

 ******    1 imaginary frequencies (negative Signs) ******

                      1                      2                      3
                      A                      A                      A
 Frequencies --     -0.6669                95.9330               131.5240
 Red. masses --     18.5912                18.9597                18.8596
 Frc consts  --      0.0000                 0.1028                 0.1922
 IR Inten    --      3.0549                 0.3414                 0.3857
 Raman Activ --      0.0000                 0.0033                 0.2038

                      4                      5                      6
                      A                      A                      A
 Frequencies --    600.5994               611.2820               844.6518
 Red. masses --     18.6237                18.2144                13.8492
 Frc consts  --      3.9581                 4.0100                 5.8214
 IR Inten    --      4.6329                13.3486                86.9892
 Raman Activ --      1.3368                 1.0182                 0.7205

                      7                      8                      9
                      A                      A                      A
 Frequencies --    909.2851              1472.8602              1903.0178
 Red. masses --     15.6078                14.0173                13.3896
 Frc consts  --      7.6031                17.9159                28.5696
 IR Inten    --    121.1393               342.5006               504.4082
 Raman Activ --      5.6795                 1.5448                 0.6236

 - Thermochemistry -
 -------------------
 Temperature   298.150 Kelvin.  Pressure   1.00000 Atm.
 Atom     1 has atomic number  6 and mass  12.00000

 Molecular mass:    87.99361 amu.
 Principal axes and moments of inertia in atomic units:
                           1         2         3
     Eigenvalues --   155.03220********************
           X            1.00000   0.00001   0.00015
           Y           -0.00001   1.00000   0.00006
           Z           -0.00015  -0.00006   1.00000
 This molecule is an asymmetric top.
 Rotational symmetry number  1.
 Rotational temperatures (Kelvin)      0.55868     0.00748     0.00739
 Rotational constants (GHZ):          11.64107     0.15592     0.15394
    1 imaginary frequencies ignored.
 Zero-point vibrational energy      39292.3 (Joules/Mol)
                                    9.39108 (Kcal/Mol)
 Warning -- explicit consideration of   4 degrees of freedom as
           vibrations may cause significant error
 Vibrational temperatures:    138.03   189.23   864.13   879.50  1215.26
          (Kelvin)           1308.26  2119.11  2738.01

 Zero-point correction=                           0.014966 (Hartree/Particle)
 Thermal correction to Energy=                    0.019655
 Thermal correction to Enthalpy=                  0.020599
 Thermal correction to Gibbs Free Energy=        -0.017315
 Sum of electronic and zero-point Energies=           -435.101635
 Sum of electronic and thermal Energies=              -435.096945
 Sum of electronic and thermal Enthalpies=            -435.096001
 Sum of electronic and thermal Free Energies=         -435.133915

                     E (Thermal)             CV                S
                      KCal/Mol        Cal/Mol-Kelvin    Cal/Mol-Kelvin
 Total                   12.334             13.041             79.797
 Electronic               0.000              0.000              1.377
 Translational            0.889              2.981             39.337
 Rotational               0.889              2.981             31.420
 Vibrational             10.556              7.079              7.662
 Vibration     1          0.603              1.952              3.535
 Vibration     2          0.612              1.922              2.924
 Vibration     3          0.959              1.031              0.449
 Vibration     4          0.970              1.008              0.431

 1\1\GINC-TP-LINUX1\Freq\UHF\6-31G(d)\C1F4(1+,2)\THOMAS\04-Mar-2017\0\\
 #P UHF/6-31g* IOP(7/33=1) IOP(7/8=11) Freq\\Distorted Ethanol\\1,2\C,-
 0.493047,5.515892,-0.688155\F,-0.099032,4.403219,-0.006114\F,0.181982,
 6.472491,-0.479632\F,-2.248042,-8.65178,2.870034\F,-0.841246,5.268284,
 -1.845898\\Version=ES64L-G09RevD.01\State=2-A\HF=-435.1166002\S2=0.752
 673\S2-1=0.\S2A=0.750003\RMSD=9.971e-09\RMSF=6.562e-02\ZeroPoint=0.014
 9656\Thermal=0.0196551\Dipole=0.3076895,6.1414057,-1.3681107\DipoleDer
 iv=1.5411047,0.346219,0.410606,0.299728,2.2696165,-0.025672,0.4394529,

 Normal termination of Gaussian 09 at Sat Mar  4 13:40:52 2017.
