 Gaussian 09, Revision D.01,
 Gaussian 09:  ES64L-G09RevD.01 24-Apr-2013

 ------------------------------------------
 #P UHF/6-31g* IOP(7/33=1) IOP(7/8=11) Freq
 ------------------------------------------

 -----------------
 Distorted Ethanol
 -----------------
 Symbolic Z-matrix:
 Charge =  1 Multiplicity = 2

                         Standard orientation:
 ---------------------------------------------------------------------
 Center     Atomic      Atomic             Coordinates (Angstroms)
 Number     Number       Type             X           Y           Z
 ---------------------------------------------------------------------
      1          6           0        3.076895   -0.006223   -0.220399
      2          9           0        4.024324   -0.805321   -0.289605
      3          9           0        2.059040   -0.371371    0.525520
      4          9           0      -11.580941    0.003410   -0.056042
      5          9           0        3.446313    1.177430   -0.032941
 ---------------------------------------------------------------------

 SCF Done:  E(UHF) =  -435.118512074     A.U. after   95 cycles

 The electronic state is 2-A.
 Alpha  occ. eigenvalues --  -26.75677 -26.74807 -26.73319 -26.43718 -11.97441
 Alpha  occ. eigenvalues --   -2.14532  -2.04734  -2.01514  -1.69099  -1.32141
 Alpha  occ. eigenvalues --   -1.21785  -1.21436  -1.16507  -1.06079  -1.05726
 Alpha  occ. eigenvalues --   -1.03564  -1.02406  -1.01417  -0.85923  -0.75134
 Alpha  occ. eigenvalues --   -0.75131
 Alpha virt. eigenvalues --   -0.31043   0.06896   0.11331   0.12274   0.33232
 Alpha virt. eigenvalues --    0.35750   0.38616   0.40254   1.00229   1.01669
 Alpha virt. eigenvalues --    1.03144   1.03189   1.05583   1.07062   1.27866

  Beta  occ. eigenvalues --  -26.75677 -26.74807 -26.73319 -26.38943 -11.97441
  Beta  occ. eigenvalues --   -2.14532  -2.04734  -2.01514  -1.49908  -1.32141
  Beta  occ. eigenvalues --   -1.21785  -1.21436  -1.16507  -1.06079  -1.05726
  Beta  occ. eigenvalues --   -1.03564  -1.02406  -1.01417  -0.69970  -0.69967
  Beta virt. eigenvalues --   -0.31043   0.05761   0.06896   0.11331   0.12274
  Beta virt. eigenvalues --    0.33232   0.35750   0.38616   0.40254   1.00229
  Beta virt. eigenvalues --    1.01669   1.03144   1.05583   1.06419   1.07062

 Mulliken charges and spin densities:
               1          2
     1  C    1.315881   0.000000
     2  F   -0.079009   0.000000
     3  F   -0.142903   0.000000
     4  F    0.000000   1.000000
     5  F   -0.093969   0.000000
 Sum of Mulliken charges =   1.00000   1.00000

 Dipole moment (field-independent basis, Debye):
    X=             14.8076    Y=             -0.0380    Z=             -1.4827  Tot=             14.8817
 Quadrupole moment (field-independent basis, Debye-Ang):
   XX=             24.6098   YY=            -21.2556   ZZ=            -19.5122
   XY=             -0.1834   XZ=             -4.3076   YZ=              0.0783

  Exact polarizability:  13.021   0.170  13.039  -1.634  -0.022  10.271
 Approx polarizability:  12.209   0.136  12.134  -1.257  -0.005  10.223

 ******    1 imaginary frequencies (negative Signs) ******

                      1                      2                      3
                      A                      A                      A
 Frequencies --     -0.6867               149.4782               210.0818
 Red. masses --     18.5913                18.9312                18.9227
 Frc consts  --      0.0000                 0.2492                 0.4921
 IR Inten    --      3.0550                 0.2890                 0.1385
 Raman Activ --      0.0000                 0.0530                 0.2332

                      4                      5                      6
                      A                      A                      A
 Frequencies --    606.0677               632.5073               866.8073
 Red. masses --     18.2886                18.4672                14.6229
 Frc consts  --      3.9580                 4.3529                 6.4733
 IR Inten    --     10.4472                 7.8936                71.0571
 Raman Activ --      0.9318                 1.0362                 0.6801

                      7                      8                      9
                      A                      A                      A
 Frequencies --   1010.3293              1455.2376              1630.0707
 Red. masses --     15.6237                13.3964                13.2615
 Frc consts  --      9.3964                16.7149                20.7614
 IR Inten    --     72.1705               402.4318               470.2143
 Raman Activ --      5.7976                 1.3574                 0.8501

 - Thermochemistry -
 -------------------
 Temperature   298.150 Kelvin.  Pressure   1.00000 Atm.
 Atom     1 has atomic number  6 and mass  12.00000

 Molecular mass:    87.99361 amu.
 Principal axes and moments of inertia in atomic units:
                           1         2         3
     Eigenvalues --   174.20916********************
           X            1.00000   0.00000  -0.00014
           Y            0.00000   1.00000   0.00003
           Z            0.00014  -0.00003   1.00000
 This molecule is an asymmetric top.
 Rotational symmetry number  1.
 Rotational temperatures (Kelvin)      0.49718     0.00739     0.00731
 Rotational constants (GHZ):          10.35962     0.15394     0.15237
    1 imaginary frequencies ignored.
 Zero-point vibrational energy      39241.0 (Joules/Mol)
                                    9.37882 (Kcal/Mol)
 Warning -- explicit consideration of   3 degrees of freedom as
           vibrations may cause significant error
 Vibrational temperatures:    215.07   302.26   872.00   910.04  1247.14
          (Kelvin)           1453.64  2093.76  2345.31

 Zero-point correction=                           0.014946 (Hartree/Particle)
 Thermal correction to Energy=                    0.019373
 Thermal correction to Enthalpy=                  0.020317
 Thermal correction to Gibbs Free Energy=        -0.016791
 Sum of electronic and zero-point Energies=           -435.103566
 Sum of electronic and thermal Energies=              -435.099139
 Sum of electronic and thermal Enthalpies=            -435.098195
 Sum of electronic and thermal Free Energies=         -435.135304

                     E (Thermal)             CV                S
                      KCal/Mol        Cal/Mol-Kelvin    Cal/Mol-Kelvin
 Total                   12.157             12.721             78.102
 Electronic               0.000              0.000              1.377
 Translational            0.889              2.981             39.337
 Rotational               0.889              2.981             31.559
 Vibrational             10.379              6.759              5.828
 Vibration     1          0.618              1.903              2.679
 Vibration     2          0.642              1.825              2.043
 Vibration     3          0.965              1.019              0.439

 1\1\GINC-TP-LINUX1\Freq\UHF\6-31G(d)\C1F4(1+,2)\THOMAS\04-Mar-2017\0\\
 #P UHF/6-31g* IOP(7/33=1) IOP(7/8=11) Freq\\Distorted Ethanol\\1,2\C,0
 .859743,4.622316,-1.292495\F,1.85163,5.341939,-1.094331\F,0.147417,4.3
 06564,-0.234833\F,-6.16454,-6.702022,4.814721\F,0.174493,4.991539,-2.2
 75731\\Version=ES64L-G09RevD.01\State=2-A\HF=-435.1185121\S2=0.752673\
 S2-1=0.\S2A=0.750003\RMSD=4.783e-09\RMSF=5.969e-02\ZeroPoint=0.0149461
 \Thermal=0.0193729\Dipole=3.119235,4.1771584,-2.6649043\DipoleDeriv=2.
 1673811,0.368884,0.1713648,0.3873055,1.5126621,-0.2760357,0.167703,-0.

 Normal termination of Gaussian 09 at Sat Mar  4 13:42:42 2017.
