 Gaussian 09, Revision D.01,
 Gaussian 09:  ES64L-G09RevD.01 24-Apr-2013

 ------------------------------------------
 #P UHF/6-31g* IOP(7/33=1) IOP(7/8=11) Freq
 ------------------------------------------

 -----------------
 Distorted Ethanol
 -----------------
 Symbolic Z-matrix:
 Charge =  1 Multiplicity = 2

                         Standard orientation:
 ---------------------------------------------------------------------
 Center     Atomic      Atomic             Coordinates (Angstroms)
 Number     Number       Type             X           Y           Z
 ---------------------------------------------------------------------
      1          6           0        2.751351   -0.029871   -0.001852
      2          9           0        2.893334   -0.127130    1.187989
      3          9           0        2.920752    1.135900   -0.461713
      4          9           0      -10.977022   -0.027719   -0.022938
      5          9           0        3.328702   -0.961136   -0.702103
 ---------------------------------------------------------------------

 SCF Done:  E(UHF) =  -435.121442328     A.U. after   13 cycles

 The electronic state is 2-A.
 Alpha  occ. eigenvalues --  -26.76764 -26.74116 -26.72945 -26.43990 -11.96993
 Alpha  occ. eigenvalues --   -2.16458  -2.05380  -2.01679  -1.69373  -1.32650
 Alpha  occ. eigenvalues --   -1.22648  -1.22269  -1.17582  -1.06478  -1.05942
 Alpha  occ. eigenvalues --   -1.03937  -1.02283  -1.01251  -0.86199  -0.75404
 Alpha  occ. eigenvalues --   -0.75404
 Alpha virt. eigenvalues --   -0.30176   0.08476   0.11791   0.13755   0.32985
 Alpha virt. eigenvalues --    0.35655   0.38534   0.42988   0.99235   1.02031
 Alpha virt. eigenvalues --    1.02915   1.03334   1.05808   1.07365   1.27074

  Beta  occ. eigenvalues --  -26.76764 -26.74116 -26.72945 -26.39215 -11.96993
  Beta  occ. eigenvalues --   -2.16458  -2.05380  -2.01679  -1.50182  -1.32650
  Beta  occ. eigenvalues --   -1.22648  -1.22269  -1.17582  -1.06478  -1.05942
  Beta  occ. eigenvalues --   -1.03937  -1.02283  -1.01251  -0.70240  -0.70240
  Beta virt. eigenvalues --   -0.30176   0.05480   0.08476   0.11791   0.13755
  Beta virt. eigenvalues --    0.32985   0.35655   0.38534   0.42988   0.99235
  Beta virt. eigenvalues --    1.02031   1.03334   1.05808   1.06145   1.07365

 Mulliken charges and spin densities:
               1          2
     1  C    1.288984   0.000000
     2  F   -0.038586   0.000000
     3  F   -0.109657   0.000000
     4  F    0.000000   1.000000
     5  F   -0.140742   0.000000
 Sum of Mulliken charges =   1.00000   1.00000

 Dipole moment (field-independent basis, Debye):
    X=             12.7904    Y=             -0.1523    Z=              0.2389  Tot=             12.7936
 Quadrupole moment (field-independent basis, Debye-Ang):
   XX=             14.3862   YY=            -21.3543   ZZ=            -21.1064
   XY=             -0.2607   XZ=              0.7873   YZ=             -0.0545

  Exact polarizability:   9.727  -0.753  13.205  -0.701   0.064  12.768
 Approx polarizability:   9.769  -0.566  12.265  -0.574   0.051  11.916

                      1                      2                      3
                      A                      A                      A
 Frequencies --      1.0442                26.2717               197.2137
 Red. masses --     18.5913                18.8797                18.9144
 Frc consts  --      0.0000                 0.0077                 0.4334
 IR Inten    --      3.0564                 0.4535                 0.1555
 Raman Activ --      0.0000                 0.1660                 0.2188

                      4                      5                      6
                      A                      A                      A
 Frequencies --    623.6544               632.1577               859.9412
 Red. masses --     18.1802                18.3353                14.1028
 Frc consts  --      4.1662                 4.3171                 6.1446
 IR Inten    --     13.0923                11.0090                82.1550
 Raman Activ --      0.8765                 0.8702                 0.6526

                      7                      8                      9
                      A                      A                      A
 Frequencies --   1046.9736              1456.0324              1802.3884
 Red. masses --     16.2955                13.2817                13.4049
 Frc consts  --     10.5242                16.5900                25.6572
 IR Inten    --     62.3862               425.7354               475.2017
 Raman Activ --      5.5703                 1.1633                 0.8066

 - Thermochemistry -
 -------------------
 Temperature   298.150 Kelvin.  Pressure   1.00000 Atm.
 Atom     1 has atomic number  6 and mass  12.00000

 Molecular mass:    87.99361 amu.
 Principal axes and moments of inertia in atomic units:
                           1         2         3
     Eigenvalues --   295.09119********************
           X            1.00000  -0.00002   0.00000
           Y            0.00002   1.00000   0.00002
           Z            0.00000  -0.00002   1.00000
 This molecule is an asymmetric top.
 Rotational symmetry number  1.
 Rotational temperatures (Kelvin)      0.29352     0.00822     0.00821
 Rotational constants (GHZ):           6.11588     0.17121     0.17108
 Zero-point vibrational energy      39750.0 (Joules/Mol)
                                    9.50047 (Kcal/Mol)
 Warning -- explicit consideration of   3 degrees of freedom as
           vibrations may cause significant error
 Vibrational temperatures:      1.50    37.80   283.75   897.30   909.53
          (Kelvin)           1237.26  1506.36  2094.90  2593.23

 Zero-point correction=                           0.015140 (Hartree/Particle)
 Thermal correction to Energy=                    0.020756
 Thermal correction to Enthalpy=                  0.021700
 Thermal correction to Gibbs Free Energy=        -0.023150
 Sum of electronic and zero-point Energies=           -435.106302
 Sum of electronic and thermal Energies=              -435.100686
 Sum of electronic and thermal Enthalpies=            -435.099742
 Sum of electronic and thermal Free Energies=         -435.144592

                     E (Thermal)             CV                S
                      KCal/Mol        Cal/Mol-Kelvin    Cal/Mol-Kelvin
 Total                   13.025             14.722             94.395
 Electronic               0.000              0.000              1.377
 Translational            0.889              2.981             39.337
 Rotational               0.889              2.981             31.862
 Vibrational             11.247              8.760             21.819
 Vibration     1          0.592              1.987             12.501
 Vibration     2          0.593              1.985              6.093
 Vibration     3          0.637              1.844              2.159

 1\1\GINC-TP-LINUX1\Freq\UHF\6-31G(d)\C1F4(1+,2)\THOMAS\04-Mar-2017\0\\
 #P UHF/6-31g* IOP(7/33=1) IOP(7/8=11) Freq\\Distorted Ethanol\\1,2\C,0
 .149937,4.773592,-0.952225\F,1.331824,4.579402,-0.84843\F,-0.35484,5.4
 73264,-0.027643\F,-3.939886,-7.511792,3.60972\F,-0.249415,5.108255,-2.
 143636\\Version=ES64L-G09RevD.01\State=2-A\HF=-435.1214423\S2=0.752672
 \S2-1=0.\S2A=0.750003\RMSD=6.629e-09\RMSF=5.944e-02\ZeroPoint=0.01514\
 Thermal=0.0207563\Dipole=1.5870402,4.4603539,-1.7092096\DipoleDeriv=2.
 243454,-0.4215774,0.0612362,-0.3968845,1.4381985,0.1570809,0.0517287,0

 Normal termination of Gaussian 09 at Sat Mar  4 13:37:57 2017.
