 Gaussian 09, Revision D.01,
 Gaussian 09:  ES64L-G09RevD.01 24-Apr-2013

 ------------------------------------------
 #P UHF/6-31g* IOP(7/33=1) IOP(7/8=11) Freq
 ------------------------------------------

 -----------------
 Distorted Ethanol
 -----------------
 Symbolic Z-matrix:
 Charge =  1 Multiplicity = 2

                         Standard orientation:
 ---------------------------------------------------------------------
 Center     Atomic      Atomic             Coordinates (Angstroms)
 Number     Number       Type             X           Y           Z
 ---------------------------------------------------------------------
      1          6           0        2.961150   -0.006537   -0.204685
      2          9           0        4.134984   -0.345331   -0.422378
      3          9           0        2.235169   -0.890038    0.426823
      4          9           0      -11.220027    0.009574   -0.057956
      5          9           0        2.875775    1.230154    0.189969
 ---------------------------------------------------------------------

 SCF Done:  E(UHF) =  -435.116455743     A.U. after   66 cycles

 The electronic state is 2-A.
 Alpha  occ. eigenvalues --  -26.75806 -26.74276 -26.73906 -26.43842 -11.97835
 Alpha  occ. eigenvalues --   -2.13533  -2.03284  -2.01739  -1.69224  -1.31889
 Alpha  occ. eigenvalues --   -1.21137  -1.20730  -1.15786  -1.05726  -1.05402
 Alpha  occ. eigenvalues --   -1.03260  -1.02579  -1.01538  -0.86047  -0.75259
 Alpha  occ. eigenvalues --   -0.75256
 Alpha virt. eigenvalues --   -0.31260   0.04742   0.10087   0.11781   0.33531
 Alpha virt. eigenvalues --    0.35580   0.37422   0.40107   1.00239   1.01705
 Alpha virt. eigenvalues --    1.03065   1.03383   1.05050   1.07553   1.28342

  Beta  occ. eigenvalues --  -26.75806 -26.74276 -26.73906 -26.39067 -11.97835
  Beta  occ. eigenvalues --   -2.13533  -2.03284  -2.01739  -1.50032  -1.31889
  Beta  occ. eigenvalues --   -1.21137  -1.20730  -1.15786  -1.05726  -1.05402
  Beta  occ. eigenvalues --   -1.03260  -1.02579  -1.01538  -0.70094  -0.70091
  Beta virt. eigenvalues --   -0.31260   0.04742   0.05636   0.10087   0.11781
  Beta virt. eigenvalues --    0.33531   0.35580   0.37422   0.40107   1.00239
  Beta virt. eigenvalues --    1.01705   1.03383   1.05050   1.06295   1.07553

 Mulliken charges and spin densities:
               1          2
     1  C    1.336872   0.000000
     2  F   -0.075000   0.000000
     3  F   -0.131588   0.000000
     4  F    0.000000   1.000000
     5  F   -0.130284   0.000000
 Sum of Mulliken charges =   1.00000   1.00000

 Dipole moment (field-independent basis, Debye):
    X=             14.1939    Y=             -0.0950    Z=             -1.3764  Tot=             14.2608
 Quadrupole moment (field-independent basis, Debye-Ang):
   XX=             20.9818   YY=            -21.1023   ZZ=            -19.8690
   XY=             -0.2886   XZ=             -3.8545   YZ=             -0.3875

  Exact polarizability:  12.639   0.421  14.029  -1.556  -0.134  10.220
 Approx polarizability:  11.911   0.402  13.052  -1.176  -0.134  10.125

 ******    1 imaginary frequencies (negative Signs) ******

                      1                      2                      3
                      A                      A                      A
 Frequencies --     -0.7489               170.8161               204.8282
 Red. masses --     18.5913                18.9224                18.9355
 Frc consts  --      0.0000                 0.3253                 0.4681
 IR Inten    --      3.0555                 0.2083                 0.1987
 Raman Activ --      0.0000                 0.1708                 0.1148

                      4                      5                      6
                      A                      A                      A
 Frequencies --    592.3339               625.9740               865.1787
 Red. masses --     18.3801                18.5131                15.4487
 Frc consts  --      3.7995                 4.2741                 6.8132
 IR Inten    --      7.1598                 7.1719                55.6347
 Raman Activ --      1.1502                 1.0351                 0.9395

                      7                      8                      9
                      A                      A                      A
 Frequencies --    979.9522              1350.5230              1589.4991
 Red. masses --     14.9607                13.1173                13.3033
 Frc consts  --      8.4647                14.0961                19.8030
 IR Inten    --     71.5340               418.7519               448.7893
 Raman Activ --      5.7768                 1.1978                 0.9930

 - Thermochemistry -
 -------------------
 Temperature   298.150 Kelvin.  Pressure   1.00000 Atm.
 Atom     1 has atomic number  6 and mass  12.00000

 Molecular mass:    87.99361 amu.
 Principal axes and moments of inertia in atomic units:
                           1         2         3
     Eigenvalues --   193.44482********************
           X            1.00000   0.00000  -0.00013
           Y            0.00000   1.00000   0.00002
           Z            0.00013  -0.00002   1.00000
 This molecule is an asymmetric top.
 Rotational symmetry number  1.
 Rotational temperatures (Kelvin)      0.44774     0.00787     0.00777
 Rotational constants (GHZ):           9.32949     0.16399     0.16199
    1 imaginary frequencies ignored.
 Zero-point vibrational energy      38155.5 (Joules/Mol)
                                    9.11939 (Kcal/Mol)
 Warning -- explicit consideration of   3 degrees of freedom as
           vibrations may cause significant error
 Vibrational temperatures:    245.77   294.70   852.24   900.64  1244.80
          (Kelvin)           1409.93  1943.10  2286.93

 Zero-point correction=                           0.014533 (Hartree/Particle)
 Thermal correction to Energy=                    0.018951
 Thermal correction to Enthalpy=                  0.019895
 Thermal correction to Gibbs Free Energy=        -0.017133
 Sum of electronic and zero-point Energies=           -435.101923
 Sum of electronic and thermal Energies=              -435.097505
 Sum of electronic and thermal Enthalpies=            -435.096561
 Sum of electronic and thermal Free Energies=         -435.133589

                     E (Thermal)             CV                S
                      KCal/Mol        Cal/Mol-Kelvin    Cal/Mol-Kelvin
 Total                   11.892             12.827             77.932
 Electronic               0.000              0.000              1.377
 Translational            0.889              2.981             39.337
 Rotational               0.889              2.981             31.540
 Vibrational             10.114              6.865              5.678
 Vibration     1          0.626              1.878              2.426
 Vibration     2          0.640              1.833              2.089
 Vibration     3          0.950              1.048              0.463

 1\1\GINC-TP-LINUX1\Freq\UHF\6-31G(d)\C1F4(1+,2)\THOMAS\04-Mar-2017\0\\
 #P UHF/6-31g* IOP(7/33=1) IOP(7/8=11) Freq\\Distorted Ethanol\\1,2\C,0
 .830779,4.56232,-1.337046\F,1.631012,5.493778,-1.516135\F,0.140405,4.6
 27156,-0.229976\F,-5.828842,-6.500015,4.528255\F,0.188044,4.255547,-2.
 425728\\Version=ES64L-G09RevD.01\State=2-A\HF=-435.1164557\S2=0.752673
 \S2-1=0.\S2A=0.750003\RMSD=3.772e-09\RMSF=6.214e-02\ZeroPoint=0.014532
 7\Thermal=0.0189506\Dipole=3.0459237,4.1218337,-2.2830134\DipoleDeriv=
 1.9254711,0.5149764,-0.0910988,0.5340553,1.6663245,0.1070658,-0.096738

 Normal termination of Gaussian 09 at Sat Mar  4 13:41:57 2017.
