 Gaussian 09, Revision D.01,
 Gaussian 09:  ES64L-G09RevD.01 24-Apr-2013

 ------------------------------------------------------------
 #P UHF/6-31g* SCF(XQC,Conver=7) IOP(7/33=1) IOP(7/8=11) Freq
 ------------------------------------------------------------

 ----
 CF4+
 ----
 Symbolic Z-matrix:
 Charge =  1 Multiplicity = 2

                         Standard orientation:
 ---------------------------------------------------------------------
 Center     Atomic      Atomic             Coordinates (Angstroms)
 Number     Number       Type             X           Y           Z
 ---------------------------------------------------------------------
      1          6           0       -2.754560    0.000476    0.066538
      2          9           0       -2.845213   -0.949662   -0.730638
      3          9           0       -2.929553    1.110681   -0.463684
      4          9           0       11.023798    0.000145    0.042213
      5          9           0       -3.412658   -0.161482    1.107749
 ---------------------------------------------------------------------

 SCF Done:  E(UHF) =  -435.119866230     A.U. after   10 cycles

 The electronic state is 2-A.
 Alpha  occ. eigenvalues --  -26.74442 -26.74426 -26.74389 -26.43977 -11.96657
 Alpha  occ. eigenvalues --   -2.16167  -2.04581  -2.04518  -1.69358  -1.32424
 Alpha  occ. eigenvalues --   -1.22790  -1.22781  -1.17717  -1.06698  -1.06686
 Alpha  occ. eigenvalues --   -1.03183  -1.03156  -1.01472  -0.86181  -0.75394
 Alpha  occ. eigenvalues --   -0.75390
 Alpha virt. eigenvalues --   -0.30663   0.12598   0.12814   0.12849   0.32527
 Alpha virt. eigenvalues --    0.38229   0.38294   0.41280   1.01212   1.01244
 Alpha virt. eigenvalues --    1.02802   1.02930   1.06035   1.06047   1.27909

  Beta  occ. eigenvalues --  -26.74442 -26.74426 -26.74389 -26.39201 -11.96657
  Beta  occ. eigenvalues --   -2.16167  -2.04581  -2.04518  -1.50167  -1.32424
  Beta  occ. eigenvalues --   -1.22790  -1.22781  -1.17717  -1.06698  -1.06686
  Beta  occ. eigenvalues --   -1.03183  -1.03156  -1.01472  -0.70229  -0.70225
  Beta virt. eigenvalues --   -0.30663   0.05502   0.12598   0.12814   0.12849
  Beta virt. eigenvalues --    0.32527   0.38229   0.38294   0.41280   1.01212
  Beta virt. eigenvalues --    1.01244   1.02802   1.06035   1.06047   1.06160

 Mulliken charges and spin densities:
               1          2
     1  C    1.271663   0.000000
     2  F   -0.091318   0.000000
     3  F   -0.090366   0.000000
     4  F    0.000000   1.000000
     5  F   -0.089979   0.000000
 Sum of Mulliken charges =   1.00000   1.00000

 Dipole moment (field-independent basis, Debye):
    X=            -12.8363    Y=              0.0052    Z=              0.4430  Tot=             12.8440
 Quadrupole moment (field-independent basis, Debye-Ang):
   XX=             13.8265   YY=            -20.6389   ZZ=            -20.9355
   XY=             -0.0134   XZ=             -0.9941   YZ=             -0.3785

  Exact polarizability:   9.633  -0.003  12.983  -0.982  -0.096  12.576
 Approx polarizability:   9.717  -0.001  12.051  -0.672  -0.087  11.750

 ******    1 imaginary frequencies (negative Signs) ******

                      1                      2                      3
                      A                      A                      A
 Frequencies --     -0.8263               106.8938               109.0971
 Red. masses --     18.5912                18.8862                18.8856
 Frc consts  --      0.0000                 0.1271                 0.1324
 IR Inten    --      3.0560                 0.3622                 0.3592
 Raman Activ --      0.0000                 0.1633                 0.1683

                      4                      5                      6
                      A                      A                      A
 Frequencies --    647.8631               648.0210               861.5698
 Red. masses --     18.1585                18.1562                14.0622
 Frc consts  --      4.4905                 4.4921                 6.1502
 IR Inten    --     15.0033                15.0128                83.5181
 Raman Activ --      0.7321                 0.7320                 0.7201

                      7                      8                      9
                      A                      A                      A
 Frequencies --   1157.7776              1650.1344              1654.4314
 Red. masses --     16.8016                13.2572                13.2569
 Frc consts  --     13.2694                21.2687                21.3792
 IR Inten    --     29.8298               469.5174               470.4770
 Raman Activ --      5.5472                 0.9101                 0.9060

 - Thermochemistry -
 -------------------
 Temperature   298.150 Kelvin.  Pressure   1.00000 Atm.
 Atom     1 has atomic number  6 and mass  12.00000

 Molecular mass:    87.99361 amu.
 Principal axes and moments of inertia in atomic units:
                           1         2         3
     Eigenvalues --   281.01656********************
           X            1.00000   0.00000  -0.00004
           Y            0.00000   1.00000   0.00001
           Z            0.00004  -0.00001   1.00000
 This molecule is an asymmetric top.
 Rotational symmetry number  1.
 Rotational temperatures (Kelvin)      0.30822     0.00815     0.00814
 Rotational constants (GHZ):           6.42219     0.16985     0.16965
    1 imaginary frequencies ignored.
 Zero-point vibrational energy      40887.1 (Joules/Mol)
                                    9.77225 (Kcal/Mol)
 Warning -- explicit consideration of   2 degrees of freedom as
           vibrations may cause significant error
 Vibrational temperatures:    153.80   156.97   932.13   932.36  1239.61
          (Kelvin)           1665.78  2374.17  2380.35

 Zero-point correction=                           0.015573 (Hartree/Particle)
 Thermal correction to Energy=                    0.020203
 Thermal correction to Enthalpy=                  0.021147
 Thermal correction to Gibbs Free Energy=        -0.016924
 Sum of electronic and zero-point Energies=           -435.104293
 Sum of electronic and thermal Energies=              -435.099663
 Sum of electronic and thermal Enthalpies=            -435.098719
 Sum of electronic and thermal Free Energies=         -435.136790

                     E (Thermal)             CV                S
                      KCal/Mol        Cal/Mol-Kelvin    Cal/Mol-Kelvin
 Total                   12.677             12.587             80.126
 Electronic               0.000              0.000              1.377
 Translational            0.889              2.981             39.337
 Rotational               0.889              2.981             31.830
 Vibrational             10.900              6.626              7.582
 Vibration     1          0.606              1.944              3.325
 Vibration     2          0.606              1.942              3.285

 1\1\GINC-TP-LINUX1\Freq\UHF\6-31G(d)\C1F4(1+,2)\THOMAS\22-Mar-2017\0\\
 #P UHF/6-31g* SCF(XQC,Conver=7) IOP(7/33=1) IOP(7/8=11) Freq\\CF4+\\1,
 2\C,0.121109,4.786169,-1.047704\F,1.327892,4.523413,-0.902435\F,-0.339
 549,5.512092,-0.150406\F,-4.135501,-7.344979,3.908128\F,-0.168413,5.16
 9205,-2.193524\\Version=ES64L-G09RevD.01\State=2-A\HF=-435.1198662\S2=
 0.752673\S2-1=0.\S2A=0.750003\RMSD=2.909e-08\RMSF=5.434e-02\ZeroPoint=
 0.0155731\Thermal=0.0202028\Dipole=1.4611937,4.427925,-1.9476359\Dipol
 eDeriv=2.1179818,-0.4615305,0.0564361,-0.4618929,1.5089181,0.1053971,0

 Normal termination of Gaussian 09 at Wed Mar 22 15:42:42 2017.
