 Gaussian 09, Revision D.01,
 Gaussian 09:  ES64L-G09RevD.01 24-Apr-2013

 ------------------------------------------
 #P UHF/6-31g* IOP(7/33=1) IOP(7/8=11) Freq
 ------------------------------------------

 ----
 CF4+
 ----
 Symbolic Z-matrix:
 Charge =  1 Multiplicity = 2

                         Standard orientation:
 ---------------------------------------------------------------------
 Center     Atomic      Atomic             Coordinates (Angstroms)
 Number     Number       Type             X           Y           Z
 ---------------------------------------------------------------------
      1          6           0       -2.150006   -0.000353   -0.016511
      2          9           0       -1.965802   -1.031115   -0.629575
      3          9           0       -1.979908    1.062870   -0.575375
      4          9           0        7.673439    0.000461    0.039066
      5          9           0       -2.294392   -0.031980    1.176892
 ---------------------------------------------------------------------

 SCF Done:  E(UHF) =  -435.171378574     A.U. after   12 cycles

 The electronic state is 2-A.
 Alpha  occ. eigenvalues --  -26.75533 -26.75027 -26.75019 -26.45492 -11.95350
 Alpha  occ. eigenvalues --   -2.18379  -2.07836  -2.07167  -1.70873  -1.33052
 Alpha  occ. eigenvalues --   -1.25192  -1.25090  -1.19947  -1.07936  -1.07912
 Alpha  occ. eigenvalues --   -1.05361  -1.05015  -1.02719  -0.87694  -0.76912
 Alpha  occ. eigenvalues --   -0.76902
 Alpha virt. eigenvalues --   -0.19468   0.00261   0.20534   0.20768   0.33250
 Alpha virt. eigenvalues --    0.41071   0.41774   0.42850   0.99946   1.00638
 Alpha virt. eigenvalues --    1.00878   1.01415   1.12594   1.12736   1.26119

  Beta  occ. eigenvalues --  -26.75533 -26.75027 -26.75019 -26.40716 -11.95350
  Beta  occ. eigenvalues --   -2.18379  -2.07836  -2.07167  -1.51681  -1.33052
  Beta  occ. eigenvalues --   -1.25192  -1.25090  -1.19947  -1.07936  -1.07912
  Beta  occ. eigenvalues --   -1.05361  -1.05015  -1.02719  -0.71748  -0.71737
  Beta virt. eigenvalues --   -0.19468   0.00261   0.03992   0.20534   0.20768
  Beta virt. eigenvalues --    0.33250   0.41071   0.41774   0.42850   0.99946
  Beta virt. eigenvalues --    1.00638   1.00878   1.04645   1.12594   1.12736

 Mulliken charges and spin densities:
               1          2
     1  C    1.223039   0.000000
     2  F   -0.078985   0.000000
     3  F   -0.078718   0.000000
     4  F    0.000000   1.000000
     5  F   -0.065336   0.000000
 Sum of Mulliken charges =   1.00000   1.00000

 Dipole moment (field-independent basis, Debye):
    X=            -10.4120    Y=             -0.0026    Z=             -0.0492  Tot=             10.4121
 Quadrupole moment (field-independent basis, Debye-Ang):
   XX=              2.1427   YY=            -20.2014   ZZ=            -20.9912
   XY=              0.0068   XZ=              0.1733   YZ=              0.0021

  Exact polarizability:   8.386  -0.009  12.640  -0.729   0.001  12.250
 Approx polarizability:   8.195  -0.007  11.799  -0.616   0.001  11.461

 ******    3 imaginary frequencies (negative Signs) ******

                      1                      2                      3
                      A                      A                      A
 Frequencies --   -106.1692               -73.4006                -1.9383
 Red. masses --     18.9937                18.9960                18.5912
 Frc consts  --      0.1261                 0.0603                 0.0000
 IR Inten    --      0.0448                 0.0335                 3.0653
 Raman Activ --      0.1866                 0.1857                 0.0000

                      4                      5                      6
                      A                      A                      A
 Frequencies --    633.7254               635.9005               861.4879
 Red. masses --     18.0582                18.0589                12.9023
 Frc consts  --      4.2729                 4.3025                 5.6418
 IR Inten    --     18.6777                18.5926               115.3322
 Raman Activ --      0.6470                 0.6563                 0.0483

                      7                      8                      9
                      A                      A                      A
 Frequencies --   1182.2654              1867.6349              1918.2075
 Red. masses --     18.8179                13.2948                13.2984
 Frc consts  --     15.4971                27.3222                28.8297
 IR Inten    --      2.7414               531.7355               538.3574
 Raman Activ --      3.5468                 0.1518                 0.1385

 - Thermochemistry -
 -------------------
 Temperature   298.150 Kelvin.  Pressure   1.00000 Atm.
 Atom     1 has atomic number  6 and mass  12.00000

 Molecular mass:    87.99361 amu.
 Principal axes and moments of inertia in atomic units:
                           1         2         3
     Eigenvalues --   292.281435221.519465226.92790
           X            1.00000   0.00000   0.00002
           Y            0.00000   1.00000   0.00000
           Z           -0.00002   0.00000   1.00000
 This molecule is an asymmetric top.
 Rotational symmetry number  1.
 Rotational temperatures (Kelvin)      0.29634     0.01659     0.01657
 Rotational constants (GHZ):           6.17467     0.34564     0.34528
    3 imaginary frequencies ignored.
 Zero-point vibrational energy      42462.8 (Joules/Mol)
                                   10.14885 (Kcal/Mol)
 Vibrational temperatures:    911.79   914.92  1239.49  1701.01  2687.11
          (Kelvin)           2759.87

 Zero-point correction=                           0.016173 (Hartree/Particle)
 Thermal correction to Energy=                    0.019372
 Thermal correction to Enthalpy=                  0.020316
 Thermal correction to Gibbs Free Energy=        -0.013974
 Sum of electronic and zero-point Energies=           -435.155205
 Sum of electronic and thermal Energies=              -435.152007
 Sum of electronic and thermal Enthalpies=            -435.151063
 Sum of electronic and thermal Free Energies=         -435.185353

                     E (Thermal)             CV                S
                      KCal/Mol        Cal/Mol-Kelvin    Cal/Mol-Kelvin
 Total                   12.156              8.687             72.170
 Electronic               0.000              0.000              1.377
 Translational            0.889              2.981             39.337
 Rotational               0.889              2.981             30.457
 Vibrational             10.378              2.725              0.999

 1\1\GINC-TP-LINUX1\Freq\UHF\6-31G(d)\C1F4(1+,2)\THOMAS\21-Mar-2017\0\\
 #P UHF/6-31g* IOP(7/33=1) IOP(7/8=11) Freq\\CF4+\\1,2\C,-0.008706,4.25
 7884,-0.758127\F,1.071301,3.735242,-0.577358\F,-0.635004,4.674304,0.19
 374\F,-3.12987,-4.392459,2.696299\F,-0.540005,4.176317,-1.833825\\Vers
 ion=ES64L-G09RevD.01\State=2-A\HF=-435.1713786\S2=0.752673\S2-1=0.\S2A
 =0.750003\RMSD=2.452e-09\RMSF=1.387e-02\ZeroPoint=0.0161732\Thermal=0.
 0193716\Dipole=1.3001471,3.6062903,-1.4440055\DipoleDeriv=2.3153866,-0
 .4462272,0.1061488,-0.4458152,1.5183309,0.2248697,0.1056976,0.2239282,

 Normal termination of Gaussian 09 at Tue Mar 21 13:07:33 2017.
