 Gaussian 09, Revision D.01,
 Gaussian 09:  ES64L-G09RevD.01 24-Apr-2013

 ------------------------------
 #P UHF/6-31G* pop=full gfinput
 ------------------------------

 (Enter /mnt/software/gaussian/g09/l101.exe)

 Symbolic Z-matrix:
 Charge =  1 Multiplicity = 2

                         Standard orientation:
 ---------------------------------------------------------------------
 Center     Atomic      Atomic             Coordinates (Angstroms)
 Number     Number       Type             X           Y           Z
 ---------------------------------------------------------------------
      1          6           0        0.000002    0.000001   -0.000002
      2          9           0       -0.162831   -0.822191    0.995670
      3          9           0       -1.095611    0.055621   -0.700317
      4          9           0        0.975514   -0.418462   -0.753097
      5          9           0        0.282926    1.185031    0.457744
 ---------------------------------------------------------------------

 SCF Done:  E(UHF) =  -435.067762856     A.U. after   46 cycles

 The electronic state is 2-A.
 Alpha  occ. eigenvalues --  -27.00703 -26.67315 -26.67256 -26.65200 -11.92969
 Alpha  occ. eigenvalues --   -2.31998  -2.05685  -1.96975  -1.95640  -1.44347
 Alpha  occ. eigenvalues --   -1.41708  -1.31866  -1.22819  -1.13971  -1.12712
 Alpha  occ. eigenvalues --   -1.03476  -1.01274  -1.00514  -0.96961  -0.96162
 Alpha  occ. eigenvalues --   -0.94639
 Alpha virt. eigenvalues --    0.04880   0.10992   0.12132   0.17890   0.32030
 Alpha virt. eigenvalues --    0.37674   0.38443   0.43108   0.90501   0.92039
 Alpha virt. eigenvalues --    0.94863   1.04425   1.05035   1.13493   1.16082

  Beta  occ. eigenvalues --  -26.95553 -26.66986 -26.66937 -26.65228 -11.93202
  Beta  occ. eigenvalues --   -2.17075  -2.02581  -1.95949  -1.95426  -1.39791
  Beta  occ. eigenvalues --   -1.27286  -1.22047  -1.15096  -1.11846  -1.01137
  Beta  occ. eigenvalues --   -1.00532  -0.99473  -0.96712  -0.96004  -0.94414
  Beta virt. eigenvalues --   -0.46950   0.07219   0.12202   0.14747   0.17968
  Beta virt. eigenvalues --    0.32753   0.38313   0.38434   0.43252   0.92447
  Beta virt. eigenvalues --    0.95998   1.00181   1.05261   1.05381   1.13979

 Mulliken charges and spin densities:
               1          2
     1  C    1.330276  -0.076737
     2  F   -0.219134   0.050453
     3  F   -0.219705   0.048977
     4  F    0.346228   0.979007
     5  F   -0.237664  -0.001700
 Sum of Mulliken charges =   1.00000   1.00000

 Dipole moment (field-independent basis, Debye):
    X=              2.6381    Y=             -1.2878    Z=             -2.1131  Tot=              3.6171
 Quadrupole moment (field-independent basis, Debye-Ang):
   XX=            -19.2531   YY=            -21.8740   ZZ=            -20.2175
   XY=             -1.3701   XZ=             -2.0544   YZ=              0.6463

 Normal termination of Gaussian 09 at Tue Mar  7 16:07:58 2017.
