 Gaussian 09, Revision D.01,
 Gaussian 09:  ES64L-G09RevD.01 24-Apr-2013

 ---------------
 # HF/6-31G* Opt
 ---------------

 99/9=1/99;

 Symbolic Z-matrix:
 Charge =  0 Multiplicity = 1

 SCF Done:  E(RHF) =  -435.166177500     A.U. after    9 cycles
 SCF Done:  E(RHF) =  -435.475157073     A.U. after   10 cycles
 SCF Done:  E(RHF) =  -435.645000883     A.U. after   10 cycles
 SCF Done:  E(RHF) =  -435.645206870     A.U. after    8 cycles
 Optimization completed.
    -- Stationary point found.

                         Standard orientation:
 ---------------------------------------------------------------------
 Center     Atomic      Atomic             Coordinates (Angstroms)
 Number     Number       Type             X           Y           Z
 ---------------------------------------------------------------------
      1          6           0        0.000001   -0.000001    0.000000
      2          9           0        0.820475    0.997163   -0.162434
      3          9           0        0.667768   -1.117098   -0.008683
      4          9           0       -0.870625   -0.007467   -0.967394
      5          9           0       -0.617619    0.127403    1.138511
 ---------------------------------------------------------------------

 The electronic state is 1-A.
 Alpha  occ. eigenvalues --  -26.37432 -26.37432 -26.37432 -26.37427 -11.60461
 Alpha  occ. eigenvalues --   -1.81322  -1.67892  -1.67892  -1.67892  -1.00490
 Alpha  occ. eigenvalues --   -0.88968  -0.88968  -0.88968  -0.75891  -0.75891
 Alpha  occ. eigenvalues --   -0.70454  -0.70454  -0.70454  -0.67298  -0.67298
 Alpha  occ. eigenvalues --   -0.67298
 Alpha virt. eigenvalues --    0.43805   0.43805   0.43805   0.44180   0.67648
 Alpha virt. eigenvalues --    0.67648   0.67648   0.68870   1.29694   1.29694
 Alpha virt. eigenvalues --    1.30013   1.30013   1.30013   1.40838   1.57181

 Mulliken charges:
               1
     1  C    1.312628
     2  F   -0.328158
     3  F   -0.328156
     4  F   -0.328158
     5  F   -0.328156
 Sum of Mulliken charges =   0.00000

 Dipole moment (field-independent basis, Debye):
    X=              0.0000    Y=              0.0000    Z=              0.0000  Tot=              0.0000
 Quadrupole moment (field-independent basis, Debye-Ang):
   XX=            -24.9359   YY=            -24.9359   ZZ=            -24.9359
   XY=              0.0000   XZ=              0.0000   YZ=              0.0000

 Normal termination of Gaussian 09 at Thu Mar  2 11:16:40 2017.
