 Q-Chem 4.3, Q-Chem, Inc., Pleasanton, CA (2015)
 Q-Chem 4.3.0 for Intel X86 Linux

User input:
--------------------------------------------------------------
$comment
XAS calculation for valence excited states for CF4+ using cvs-adc(2) + 6-31G* basis set
job 1 - determination of HF orbitals
$end

$molecule
1 2
6  -0.661811  2.455398  -0.043473
9  0.592893  2.340184  0.003048
9  -1.135057  3.279079  0.785074
9  -1.145605  1.16142  0.440028
9  -1.133286  2.551227  -1.200691
$end

$comment
cvs-adc(2) calculation
$end

$rem
mem_total 3000
mem_static 1500
sym_ignore true
method cvs-adc(2)
basis 6-31G*
ee_singlets 20
cc_rest_occ 5                  !only excitations from the lowest N orbitals
unrestricted  true
max_scf_cycles 200
SCF_ALGORITHM = DIIS_GDM
SCF_CONVERGENCE = 7
THRESH = 10
$end
--------------------------------------------------------------

             Standard Nuclear Orientation (Angstroms)
    I     Atom           X                Y                Z
 ----------------------------------------------------------------
    1      C      -0.6618110000     2.4553980000    -0.0434730000
    2      F       0.5928930000     2.3401840000     0.0030480000
    3      F      -1.1350570000     3.2790790000     0.7850740000
    4      F      -1.1456050000     1.1614200000     0.4400280000
    5      F      -1.1332860000     2.5512270000    -1.2006910000
 ----------------------------------------------------------------

   52    -435.1204587626      7.54E-08 Convergence criterion met
 Total energy in the final basis set = -435.1204587626
  Term symbol:  2 (-) A                                     R^2 =  2.43015e-12
  Excitation energy:                                             293.439669 eV
  Term symbol:  3 (-) A                                     R^2 =  1.09348e-11
  Excitation energy:                                             296.708561 eV
  Term symbol:  4 (-) A                                     R^2 =  8.04984e-12
  Excitation energy:                                             299.226994 eV
  Term symbol:  5 (-) A                                     R^2 =  4.25301e-10
  Excitation energy:                                             303.717698 eV
  Term symbol:  6 (-) A                                     R^2 =  2.36988e-12
  Excitation energy:                                             303.889257 eV
  Term symbol:  7 (-) A                                     R^2 =  1.02164e-11
  Excitation energy:                                             304.891951 eV
  Term symbol:  8 (-) A                                     R^2 =  2.35842e-10
  Excitation energy:                                             305.806743 eV
  Term symbol:  9 (-) A                                     R^2 =  1.51356e-11
  Excitation energy:                                             305.969738 eV
  Term symbol:  10 (-) A                                    R^2 =  6.46622e-12
  Excitation energy:                                             307.186665 eV
  Excited state 10 (A)                                             [converged]
  Term symbol:  11 (-) A                                    R^2 =  5.71122e-12
  Excitation energy:                                             314.626208 eV
  Excited state 11 (A)                                             [converged]
  Term symbol:  12 (-) A                                    R^2 =  1.04391e-10
  Excitation energy:                                             314.789956 eV
  Excited state 12 (A)                                             [converged]
  Term symbol:  13 (-) A                                    R^2 =  1.63283e-11
  Excitation energy:                                             314.974495 eV
  Excited state 13 (A)                                             [converged]
  Term symbol:  14 (-) A                                    R^2 =  1.38046e-11
  Excitation energy:                                             315.098341 eV
  Excited state 14 (A)                                             [converged]
  Term symbol:  15 (-) A                                    R^2 =  3.89920e-11
  Excitation energy:                                             315.376349 eV
  Excited state 15 (A)                                             [converged]
  Term symbol:  16 (-) A                                    R^2 =  7.88171e-11
  Excitation energy:                                             315.383140 eV
  Excited state 16 (A)                                             [converged]
  Term symbol:  17 (-) A                                    R^2 =  2.09771e-12
  Excitation energy:                                             315.506815 eV
  Excited state 17 (A)                                             [converged]
  Term symbol:  18 (-) A                                    R^2 =  7.49082e-12
  Excitation energy:                                             315.556158 eV
  Excited state 18 (A)                                         [not converged]
  Term symbol:  19 (-) A                                    R^2 =  5.49987e-06
  Excitation energy:                                             329.395646 eV
  Excited state 19 (A)                                             [converged]
  Term symbol:  20 (-) A                                    R^2 =  6.01349e-07
  Excitation energy:                                             330.073795 eV
  Excited state 20 (A)                                         [not converged]
  Term symbol:  21 (-) A                                    R^2 =  6.80514e-06
  Excitation energy:                                             330.292761 eV

                    Orbital Energies (a.u.)
 --------------------------------------------------------------

 Alpha MOs
 -- Occupied --
-26.921 -26.685 -26.684 -26.679 -11.931  -2.215  -2.084  -1.999
 -1.997  -1.361  -1.333  -1.240  -1.237  -1.173  -1.158  -1.043
 -1.026  -1.025  -0.993  -0.989  -0.967

 Beta MOs
 -- Occupied --
-26.868 -26.684 -26.683 -26.679 -11.932  -2.128  -1.997  -1.995
 -1.982  -1.331  -1.224  -1.210  -1.182  -1.134  -1.026  -1.024
 -1.018  -0.993  -0.987  -0.966

          Ground-State Mulliken Net Atomic Charges

     Atom                 Charge (a.u.)    Spin (a.u.)
  --------------------------------------------------------
      1 C                     1.353550      -0.036801
      2 F                    -0.195979       0.014448
      3 F                    -0.195740       0.013386
      4 F                     0.226831       1.012523
      5 F                    -0.188661      -0.003556
  --------------------------------------------------------
  Sum of atomic charges =     1.000000

                    Cartesian Multipole Moments
 -----------------------------------------------------------------
    Charge (ESU x 10^10)
                 4.8032
    Dipole Moment (Debye)
         X      -4.1519      Y       9.1870      Z       0.7671
       Tot      10.1108
    Quadrupole Moments (Debye-Ang)
        XX     -17.6664     XY      -7.2363     YY      -1.8854
        XZ      -1.2156     YZ       0.6786     ZZ     -21.5882

 Total job time:  1225.30s(wall), 1197.62s(cpu)
        *  Thank you very much for using Q-Chem.  Have a nice day.  *
