 Q-Chem 4.3, Q-Chem, Inc., Pleasanton, CA (2015)
 Q-Chem 4.3.0 for Intel X86 Linux

User input:
--------------------------------------------------------------
$comment
XAS calculation for valence excited states for CF4+ using cvs-adc(2) + 6-31G* basis set
job 1 - determination of HF orbitals
$end

$molecule
1 2
6  -0.452169  3.004657  -0.240288
9  0.581599  2.335708  -0.001667
9  -1.13755  3.271349  0.776324
9  -1.268436  0.808819  0.589216
9  -1.129085  2.569104  -1.212099
$end

$comment
cvs-adc(2) calculation
$end

$rem
mem_total 3000
mem_static 1500
sym_ignore true
method cvs-adc(2)
basis 6-31G*
ee_singlets 20
cc_rest_occ 5                  !only excitations from the lowest N orbitals
unrestricted  true
max_scf_cycles 200
SCF_ALGORITHM = DIIS_GDM
SCF_CONVERGENCE = 7
THRESH = 10
$end
--------------------------------------------------------------

             Standard Nuclear Orientation (Angstroms)
    I     Atom           X                Y                Z
 ----------------------------------------------------------------
    1      C      -0.4521690000     3.0046570000    -0.2402880000
    2      F       0.5815990000     2.3357080000    -0.0016670000
    3      F      -1.1375500000     3.2713490000     0.7763240000
    4      F      -1.2684360000     0.8088190000     0.5892160000
    5      F      -1.1290850000     2.5691040000    -1.2120990000
 ----------------------------------------------------------------

   72    -435.1206236773      6.78E-08 Convergence criterion met
 Total energy in the final basis set = -435.1206236773
  Term symbol:  2 (-) A                                     R^2 =  1.57487e-14
  Excitation energy:                                             292.615746 eV
  Term symbol:  3 (-) A                                     R^2 =  2.31480e-14
  Excitation energy:                                             294.501680 eV
  Term symbol:  4 (-) A                                     R^2 =  1.06051e-13
  Excitation energy:                                             303.717835 eV
  Term symbol:  5 (-) A                                     R^2 =  6.81010e-14
  Excitation energy:                                             303.862222 eV
  Term symbol:  6 (-) A                                     R^2 =  5.89131e-14
  Excitation energy:                                             304.322831 eV
  Term symbol:  7 (-) A                                     R^2 =  8.35265e-14
  Excitation energy:                                             304.386399 eV
  Term symbol:  8 (-) A                                     R^2 =  1.35281e-13
  Excitation energy:                                             305.729066 eV
  Term symbol:  9 (-) A                                     R^2 =  9.74132e-14
  Excitation energy:                                             305.882234 eV
  Term symbol:  10 (-) A                                    R^2 =  5.49658e-14
  Excitation energy:                                             306.491964 eV
  Excited state 10 (A)                                             [converged]
  Term symbol:  11 (-) A                                    R^2 =  5.34341e-14
  Excitation energy:                                             313.397993 eV
  Excited state 11 (A)                                             [converged]
  Term symbol:  12 (-) A                                    R^2 =  1.64752e-13
  Excitation energy:                                             314.719132 eV
  Excited state 12 (A)                                             [converged]
  Term symbol:  13 (-) A                                    R^2 =  5.10698e-13
  Excitation energy:                                             314.724488 eV
  Excited state 13 (A)                                             [converged]
  Term symbol:  14 (-) A                                    R^2 =  9.38970e-13
  Excitation energy:                                             314.778331 eV
  Excited state 14 (A)                                             [converged]
  Term symbol:  15 (-) A                                    R^2 =  7.09721e-13
  Excitation energy:                                             315.226066 eV
  Excited state 15 (A)                                             [converged]
  Term symbol:  16 (-) A                                    R^2 =  1.92935e-12
  Excitation energy:                                             315.241931 eV
  Excited state 16 (A)                                             [converged]
  Term symbol:  17 (-) A                                    R^2 =  7.95503e-11
  Excitation energy:                                             317.376500 eV
  Excited state 17 (A)                                             [converged]
  Term symbol:  18 (-) A                                    R^2 =  2.53567e-09
  Excitation energy:                                             317.977748 eV
  Excited state 18 (A)                                         [not converged]
  Term symbol:  19 (-) A                                    R^2 =  5.95534e-03
  Excitation energy:                                             332.262027 eV
  Excited state 19 (A)                                         [not converged]
  Term symbol:  20 (-) A                                    R^2 =  4.80138e-04
  Excitation energy:                                             332.294755 eV
  Excited state 20 (A)                                         [not converged]
  Term symbol:  21 (-) A                                    R^2 =  3.67516e-04
  Excitation energy:                                             332.345284 eV

                    Orbital Energies (a.u.)
 --------------------------------------------------------------

 Alpha MOs
 -- Occupied --
-26.739 -26.739 -26.735 -26.615 -11.964  -2.143  -2.036  -2.030
 -1.870  -1.316  -1.216  -1.215  -1.166  -1.061  -1.057  -1.041
 -1.026  -1.018  -1.009  -0.927  -0.925

 Beta MOs
 -- Occupied --
-26.739 -26.739 -26.735 -26.567 -11.964  -2.143  -2.035  -2.031
 -1.678  -1.316  -1.216  -1.215  -1.165  -1.058  -1.057  -1.027
 -1.025  -1.009  -0.875  -0.873

          Ground-State Mulliken Net Atomic Charges

     Atom                 Charge (a.u.)    Spin (a.u.)
  --------------------------------------------------------
      1 C                     1.343103      -0.005806
      2 F                    -0.118603       0.001134
      3 F                    -0.118975       0.001078
      4 F                     0.018593       1.003517
      5 F                    -0.124118       0.000076
  --------------------------------------------------------
  Sum of atomic charges =     1.000000

                    Cartesian Multipole Moments
 -----------------------------------------------------------------
    Charge (ESU x 10^10)
                 4.8032
    Dipole Moment (Debye)
         X      -2.1304      Y      14.4967      Z      -1.1450
       Tot      14.6971
    Quadrupole Moments (Debye-Ang)
        XX     -19.6038     XY      -6.1735     YY      24.0667
        XZ       0.0561     YZ      -3.8742     ZZ     -20.7641

 Total job time:  1351.76s(wall), 1308.92s(cpu)
        *  Thank you very much for using Q-Chem.  Have a nice day.  *
