 Q-Chem 4.3, Q-Chem, Inc., Pleasanton, CA (2015)
 Q-Chem 4.3.0 for Intel X86 Linux

User input:
--------------------------------------------------------------
$comment
XAS calculation for valence excited states for CF4+ using cvs-adc(2) + 6-31G* basis set
job 1 - determination of HF orbitals
$end

$molecule
1 2
6  -0.456162  2.993335  -0.235549
9  0.581022  2.327933  0.001559
9  -1.14104  3.265066  0.780884
9  -1.25772  0.838955  0.576891
9  -1.133212  2.560178  -1.210554
$end

$comment
cvs-adc(2) calculation
$end

$rem
mem_total 3000
mem_static 1500
sym_ignore true
method cvs-adc(2)
basis 6-31G*
ee_singlets 20
cc_rest_occ 5                  !only excitations from the lowest N orbitals
unrestricted  true
max_scf_cycles 200
SCF_ALGORITHM = DIIS_GDM
SCF_CONVERGENCE = 7
THRESH = 10
$end
--------------------------------------------------------------

             Standard Nuclear Orientation (Angstroms)
    I     Atom           X                Y                Z
 ----------------------------------------------------------------
    1      C      -0.4561620000     2.9933350000    -0.2355490000
    2      F       0.5810220000     2.3279330000     0.0015590000
    3      F      -1.1410400000     3.2650660000     0.7808840000
    4      F      -1.2577200000     0.8389550000     0.5768910000
    5      F      -1.1332120000     2.5601780000    -1.2105540000
 ----------------------------------------------------------------

   70    -435.1202966964      6.26E-08 Convergence criterion met
 Total energy in the final basis set = -435.1202966964
  Term symbol:  2 (-) A                                     R^2 =  3.39710e-14
  Excitation energy:                                             292.641098 eV
  Term symbol:  3 (-) A                                     R^2 =  2.45521e-14
  Excitation energy:                                             294.527721 eV
  Term symbol:  4 (-) A                                     R^2 =  1.24186e-13
  Excitation energy:                                             303.698125 eV
  Term symbol:  5 (-) A                                     R^2 =  6.88791e-14
  Excitation energy:                                             303.863721 eV
  Term symbol:  6 (-) A                                     R^2 =  4.03568e-14
  Excitation energy:                                             304.149079 eV
  Term symbol:  7 (-) A                                     R^2 =  8.14202e-14
  Excitation energy:                                             304.309070 eV
  Term symbol:  8 (-) A                                     R^2 =  8.95459e-14
  Excitation energy:                                             305.713260 eV
  Term symbol:  9 (-) A                                     R^2 =  9.05000e-14
  Excitation energy:                                             305.890763 eV
  Term symbol:  10 (-) A                                    R^2 =  4.30214e-14
  Excitation energy:                                             306.420501 eV
  Excited state 10 (A)                                             [converged]
  Term symbol:  11 (-) A                                    R^2 =  3.61801e-13
  Excitation energy:                                             313.393668 eV
  Excited state 11 (A)                                             [converged]
  Term symbol:  12 (-) A                                    R^2 =  2.13441e-13
  Excitation energy:                                             314.743810 eV
  Excited state 12 (A)                                             [converged]
  Term symbol:  13 (-) A                                    R^2 =  1.99487e-13
  Excitation energy:                                             314.750272 eV
  Excited state 13 (A)                                             [converged]
  Term symbol:  14 (-) A                                    R^2 =  7.26566e-14
  Excitation energy:                                             314.771912 eV
  Excited state 14 (A)                                             [converged]
  Term symbol:  15 (-) A                                    R^2 =  2.15130e-13
  Excitation energy:                                             315.247631 eV
  Excited state 15 (A)                                             [converged]
  Term symbol:  16 (-) A                                    R^2 =  3.61869e-13
  Excitation energy:                                             315.266054 eV
  Excited state 16 (A)                                             [converged]
  Term symbol:  17 (-) A                                    R^2 =  2.00143e-13
  Excitation energy:                                             317.644506 eV
  Excited state 17 (A)                                             [converged]
  Term symbol:  18 (-) A                                    R^2 =  7.38930e-13
  Excitation energy:                                             318.246210 eV
  Excited state 18 (A)                                         [not converged]
  Term symbol:  19 (-) A                                    R^2 =  2.89172e-04
  Excitation energy:                                             332.199171 eV
  Excited state 19 (A)                                         [not converged]
  Term symbol:  20 (-) A                                    R^2 =  5.84829e-05
  Excitation energy:                                             332.251225 eV
  Excited state 20 (A)                                         [not converged]
  Term symbol:  21 (-) A                                    R^2 =  6.11491e-05
  Excitation energy:                                             332.306064 eV

                    Orbital Energies (a.u.)
 --------------------------------------------------------------

 Alpha MOs
 -- Occupied --
-26.739 -26.739 -26.735 -26.618 -11.964  -2.142  -2.036  -2.030
 -1.874  -1.316  -1.215  -1.214  -1.166  -1.063  -1.057  -1.043
 -1.026  -1.018  -1.009  -0.931  -0.928

 Beta MOs
 -- Occupied --
-26.739 -26.739 -26.735 -26.570 -11.964  -2.142  -2.035  -2.030
 -1.682  -1.315  -1.215  -1.214  -1.165  -1.057  -1.057  -1.027
 -1.025  -1.009  -0.879  -0.877

          Ground-State Mulliken Net Atomic Charges

     Atom                 Charge (a.u.)    Spin (a.u.)
  --------------------------------------------------------
      1 C                     1.350303      -0.005965
      2 F                    -0.120811       0.001264
      3 F                    -0.121179       0.001195
      4 F                     0.018908       1.003502
      5 F                    -0.127221       0.000005
  --------------------------------------------------------
  Sum of atomic charges =     1.000000

                    Cartesian Multipole Moments
 -----------------------------------------------------------------
    Charge (ESU x 10^10)
                 4.8032
    Dipole Moment (Debye)
         X      -2.1523      Y      14.4307      Z      -1.1144
       Tot      14.6328
    Quadrupole Moments (Debye-Ang)
        XX     -19.5871     XY      -6.2143     YY      23.6561
        XZ       0.0485     YZ      -3.7625     ZZ     -20.7839

 Total job time:  1361.22s(wall), 1286.13s(cpu)
        *  Thank you very much for using Q-Chem.  Have a nice day.  *
