 Q-Chem 4.3, Q-Chem, Inc., Pleasanton, CA (2015)
 Q-Chem 4.3.0 for Intel X86 Linux

User input:
--------------------------------------------------------------
$comment
XAS calculation for valence excited states for CF4+ using cvs-adc(2) + 6-31G* basis set
job 1 - determination of HF orbitals
$end

$molecule
1 2
6  -0.647554  2.494822  -0.059121
9  0.589703  2.336632  0.004123
9  -1.135901  3.274315  0.785067
9  -1.150354  1.147374  0.446266
9  -1.133509  2.548687  -1.198113
$end

$comment
cvs-adc(2) calculation
$end

$rem
mem_total 3000
mem_static 1500
sym_ignore true
method cvs-adc(2)
basis 6-31G*
ee_singlets 20
cc_rest_occ 5                  !only excitations from the lowest N orbitals
unrestricted  true
max_scf_cycles 200
SCF_ALGORITHM = DIIS_GDM
SCF_CONVERGENCE = 7
THRESH = 10
$end
--------------------------------------------------------------

             Standard Nuclear Orientation (Angstroms)
    I     Atom           X                Y                Z
 ----------------------------------------------------------------
    1      C      -0.6475540000     2.4948220000    -0.0591210000
    2      F       0.5897030000     2.3366320000     0.0041230000
    3      F      -1.1359010000     3.2743150000     0.7850670000
    4      F      -1.1503540000     1.1473740000     0.4462660000
    5      F      -1.1335090000     2.5486870000    -1.1981130000
 ----------------------------------------------------------------

   51    -435.1315214888      4.70E-08 Convergence criterion met
 Total energy in the final basis set = -435.1315214888
  Term symbol:  2 (-) A                                     R^2 =  6.55698e-12
  Excitation energy:                                             294.555172 eV
  Term symbol:  3 (-) A                                     R^2 =  4.39207e-11
  Excitation energy:                                             296.160266 eV
  Term symbol:  4 (-) A                                     R^2 =  2.87894e-10
  Excitation energy:                                             298.593879 eV
  Term symbol:  5 (-) A                                     R^2 =  1.53496e-11
  Excitation energy:                                             304.283740 eV
  Term symbol:  6 (-) A                                     R^2 =  4.34043e-12
  Excitation energy:                                             304.467490 eV
  Term symbol:  7 (-) A                                     R^2 =  1.16171e-11
  Excitation energy:                                             304.838631 eV
  Term symbol:  8 (-) A                                     R^2 =  1.86865e-11
  Excitation energy:                                             306.400429 eV
  Term symbol:  9 (-) A                                     R^2 =  1.51008e-12
  Excitation energy:                                             306.600064 eV
  Term symbol:  10 (-) A                                    R^2 =  6.84798e-12
  Excitation energy:                                             307.012282 eV
  Excited state 10 (A)                                             [converged]
  Term symbol:  11 (-) A                                    R^2 =  3.94647e-12
  Excitation energy:                                             314.415572 eV
  Excited state 11 (A)                                             [converged]
  Term symbol:  12 (-) A                                    R^2 =  9.22921e-12
  Excitation energy:                                             314.940367 eV
  Excited state 12 (A)                                             [converged]
  Term symbol:  13 (-) A                                    R^2 =  3.42915e-12
  Excitation energy:                                             315.150371 eV
  Excited state 13 (A)                                             [converged]
  Term symbol:  14 (-) A                                    R^2 =  5.92674e-12
  Excitation energy:                                             315.380902 eV
  Excited state 14 (A)                                             [converged]
  Term symbol:  15 (-) A                                    R^2 =  8.36741e-12
  Excitation energy:                                             315.503306 eV
  Excited state 15 (A)                                             [converged]
  Term symbol:  16 (-) A                                    R^2 =  3.40224e-11
  Excitation energy:                                             315.563482 eV
  Excited state 16 (A)                                             [converged]
  Term symbol:  17 (-) A                                    R^2 =  1.14675e-11
  Excitation energy:                                             315.603863 eV
  Excited state 17 (A)                                             [converged]
  Term symbol:  18 (-) A                                    R^2 =  6.05831e-12
  Excitation energy:                                             316.027676 eV
  Excited state 18 (A)                                         [not converged]
  Term symbol:  19 (-) A                                    R^2 =  3.90489e-06
  Excitation energy:                                             329.608561 eV
  Excited state 19 (A)                                             [converged]
  Term symbol:  20 (-) A                                    R^2 =  3.87009e-07
  Excitation energy:                                             330.302069 eV
  Excited state 20 (A)                                         [not converged]
  Term symbol:  21 (-) A                                    R^2 =  2.19691e-06
  Excitation energy:                                             330.504912 eV

                    Orbital Energies (a.u.)
 --------------------------------------------------------------

 Alpha MOs
 -- Occupied --
-26.885 -26.692 -26.691 -26.689 -11.932  -2.184  -2.088  -2.011
 -2.010  -1.339  -1.301  -1.237  -1.219  -1.184  -1.158  -1.045
 -1.032  -1.032  -1.002  -0.998  -0.975

 Beta MOs
 -- Occupied --
-26.833 -26.691 -26.691 -26.689 -11.932  -2.133  -2.011  -2.008
 -1.949  -1.318  -1.220  -1.206  -1.193  -1.121  -1.033  -1.030
 -1.017  -1.004  -0.996  -0.974

          Ground-State Mulliken Net Atomic Charges

     Atom                 Charge (a.u.)    Spin (a.u.)
  --------------------------------------------------------
      1 C                     1.349661      -0.029097
      2 F                    -0.183886       0.009218
      3 F                    -0.183355       0.008431
      4 F                     0.189035       1.015461
      5 F                    -0.171455      -0.004013
  --------------------------------------------------------
  Sum of atomic charges =     1.000000

                    Cartesian Multipole Moments
 -----------------------------------------------------------------
    Charge (ESU x 10^10)
                 4.8032
    Dipole Moment (Debye)
         X      -3.9843      Y       9.6672      Z       0.5650
       Tot      10.4713
    Quadrupole Moments (Debye-Ang)
        XX     -17.7957     XY      -7.2989     YY       0.2214
        XZ      -1.0308     YZ       0.3010     ZZ     -21.4571

 Total job time:  1389.82s(wall), 1354.42s(cpu)
        *  Thank you very much for using Q-Chem.  Have a nice day.  *
