 Q-Chem 4.3, Q-Chem, Inc., Pleasanton, CA (2015)
 Q-Chem 4.3.0 for Intel X86 Linux

User input:
--------------------------------------------------------------
$comment
XAS calculation for valence excited states for CF4+ using cvs-adc(2) + 6-31G* basis set
job 1 - determination of HF orbitals
$end

$molecule
1 2
6  -0.579465  2.690124  -0.141626
9  0.681983  2.587021  -0.0994
9  -1.047767  3.529694  0.682913
9  -1.479552  0.218427  0.828662
9  -1.027731  2.848508  -1.32272
$end

$comment
cvs-adc(2) calculation
$end

$rem
mem_total 3000
mem_static 1500
sym_ignore true
method cvs-adc(2)
basis 6-31G*
ee_singlets 20
cc_rest_occ 5                  !only excitations from the lowest N orbitals
unrestricted  true
max_scf_cycles 200
SCF_ALGORITHM = DIIS_GDM
SCF_CONVERGENCE = 7
THRESH = 10
$end
--------------------------------------------------------------

             Standard Nuclear Orientation (Angstroms)
    I     Atom           X                Y                Z
 ----------------------------------------------------------------
    1      C      -0.5794650000     2.6901240000    -0.1416260000
    2      F       0.6819830000     2.5870210000    -0.0994000000
    3      F      -1.0477670000     3.5296940000     0.6829130000
    4      F      -1.4795520000     0.2184270000     0.8286620000
    5      F      -1.0277310000     2.8485080000    -1.3227200000
 ----------------------------------------------------------------

   94    -435.1208277792      4.62E-08 Convergence criterion met
 Total energy in the final basis set = -435.1208277792
  Term symbol:  2 (-) A                                     R^2 =  1.31081e-13
  Excitation energy:                                             292.490784 eV
  Term symbol:  3 (-) A                                     R^2 =  1.90052e-13
  Excitation energy:                                             294.420139 eV
  Term symbol:  4 (-) A                                     R^2 =  1.57143e-13
  Excitation energy:                                             303.373509 eV
  Term symbol:  5 (-) A                                     R^2 =  1.73122e-13
  Excitation energy:                                             303.533922 eV
  Term symbol:  6 (-) A                                     R^2 =  9.53181e-14
  Excitation energy:                                             304.201020 eV
  Term symbol:  7 (-) A                                     R^2 =  8.30605e-14
  Excitation energy:                                             305.366952 eV
  Term symbol:  8 (-) A                                     R^2 =  2.08127e-13
  Excitation energy:                                             305.437453 eV
  Term symbol:  9 (-) A                                     R^2 =  1.96852e-13
  Excitation energy:                                             305.686413 eV
  Term symbol:  10 (-) A                                    R^2 =  1.78950e-13
  Excitation energy:                                             306.276554 eV
  Excited state 10 (A)                                             [converged]
  Term symbol:  11 (-) A                                    R^2 =  1.77136e-13
  Excitation energy:                                             314.170986 eV
  Excited state 11 (A)                                             [converged]
  Term symbol:  12 (-) A                                    R^2 =  3.01893e-13
  Excitation energy:                                             314.809824 eV
  Excited state 12 (A)                                             [converged]
  Term symbol:  13 (-) A                                    R^2 =  5.47630e-13
  Excitation energy:                                             314.814958 eV
  Excited state 13 (A)                                             [converged]
  Term symbol:  14 (-) A                                    R^2 =  1.98460e-13
  Excitation energy:                                             315.194645 eV
  Excited state 14 (A)                                             [converged]
  Term symbol:  15 (-) A                                    R^2 =  3.01155e-13
  Excitation energy:                                             315.292934 eV
  Excited state 15 (A)                                             [converged]
  Term symbol:  16 (-) A                                    R^2 =  5.53885e-13
  Excitation energy:                                             315.331519 eV
  Excited state 16 (A)                                             [converged]
  Term symbol:  17 (-) A                                    R^2 =  1.11885e-12
  Excitation energy:                                             315.390118 eV
  Excited state 17 (A)                                             [converged]
  Term symbol:  18 (-) A                                    R^2 =  8.68752e-13
  Excitation energy:                                             315.907147 eV
  Excited state 18 (A)                                             [converged]
  Term symbol:  19 (-) A                                    R^2 =  5.13969e-07
  Excitation energy:                                             332.443939 eV
  Excited state 19 (A)                                             [converged]
  Term symbol:  20 (-) A                                    R^2 =  1.78216e-08
  Excitation energy:                                             332.478466 eV
  Excited state 20 (A)                                         [not converged]
  Term symbol:  21 (-) A                                    R^2 =  5.83669e-06
  Excitation energy:                                             332.513431 eV

                    Orbital Energies (a.u.)
 --------------------------------------------------------------

 Alpha MOs
 -- Occupied --
-26.739 -26.739 -26.735 -26.620 -11.969  -2.134  -2.028  -2.024
 -1.869  -1.313  -1.209  -1.208  -1.156  -1.054  -1.053  -1.036
 -1.023  -1.021  -1.008  -0.930  -0.927

 Beta MOs
 -- Occupied --
-26.739 -26.739 -26.735 -26.572 -11.969  -2.134  -2.028  -2.024
 -1.675  -1.314  -1.209  -1.208  -1.157  -1.054  -1.053  -1.023
 -1.021  -1.008  -0.875  -0.875

          Ground-State Mulliken Net Atomic Charges

     Atom                 Charge (a.u.)    Spin (a.u.)
  --------------------------------------------------------
      1 C                     1.302105      -0.003995
      2 F                    -0.108398      -0.000354
      3 F                    -0.108517      -0.000352
      4 F                     0.029430       1.005020
      5 F                    -0.114619      -0.000320
  --------------------------------------------------------
  Sum of atomic charges =     1.000000

                    Cartesian Multipole Moments
 -----------------------------------------------------------------
    Charge (ESU x 10^10)
                 4.8032
    Dipole Moment (Debye)
         X      -3.0639      Y      12.1471      Z      -0.3726
       Tot      12.5331
    Quadrupole Moments (Debye-Ang)
        XX     -18.5811     XY      -7.3609     YY      11.3765
        XZ      -0.2783     YZ      -1.5147     ZZ     -20.9976

 Total job time:  1530.96s(wall), 1484.59s(cpu)
        *  Thank you very much for using Q-Chem.  Have a nice day.  *
