 Q-Chem 4.3, Q-Chem, Inc., Pleasanton, CA (2015)
 Q-Chem 4.3.0 for Intel X86 Linux

User input:
--------------------------------------------------------------
$comment
XAS calculation for valence excited states for CF4+ using cvs-adc(2) + 6-31G* basis set
job 1 - determination of HF orbitals
$end

$molecule
1 2
6  -0.568298  2.722524  -0.155814
9  0.687536  2.59911  -0.104546
9  -1.043978  3.542863  0.678542
9  -1.50115  0.158094  0.85309
9  -1.022528  2.863118  -1.328669
$end

$comment
cvs-adc(2) calculation
$end

$rem
mem_total 3000
mem_static 1500
sym_ignore true
method cvs-adc(2)
basis 6-31G*
ee_singlets 20
cc_rest_occ 5                  !only excitations from the lowest N orbitals
unrestricted  true
max_scf_cycles 200
SCF_ALGORITHM = DIIS_GDM
SCF_CONVERGENCE = 7
THRESH = 10
$end
--------------------------------------------------------------

             Standard Nuclear Orientation (Angstroms)
    I     Atom           X                Y                Z
 ----------------------------------------------------------------
    1      C      -0.5682980000     2.7225240000    -0.1558140000
    2      F       0.6875360000     2.5991100000    -0.1045460000
    3      F      -1.0439780000     3.5428630000     0.6785420000
    4      F      -1.5011500000     0.1580940000     0.8530900000
    5      F      -1.0225280000     2.8631180000    -1.3286690000
 ----------------------------------------------------------------

   87    -435.1273569359      7.14E-08 Convergence criterion met
 Total energy in the final basis set = -435.1273569359
  Term symbol:  2 (-) A                                     R^2 =  3.50894e-13
  Excitation energy:                                             292.646751 eV
  Term symbol:  3 (-) A                                     R^2 =  4.51710e-13
  Excitation energy:                                             294.567759 eV
  Term symbol:  4 (-) A                                     R^2 =  1.97610e-12
  Excitation energy:                                             303.628505 eV
  Term symbol:  5 (-) A                                     R^2 =  1.87673e-12
  Excitation energy:                                             303.706809 eV
  Term symbol:  6 (-) A                                     R^2 =  6.90804e-13
  Excitation energy:                                             304.083753 eV
  Term symbol:  7 (-) A                                     R^2 =  8.66364e-13
  Excitation energy:                                             305.639397 eV
  Term symbol:  8 (-) A                                     R^2 =  3.06603e-12
  Excitation energy:                                             305.693297 eV
  Term symbol:  9 (-) A                                     R^2 =  9.42482e-13
  Excitation energy:                                             306.072247 eV
  Term symbol:  10 (-) A                                    R^2 =  7.66089e-13
  Excitation energy:                                             306.110184 eV
  Excited state 10 (A)                                             [converged]
  Term symbol:  11 (-) A                                    R^2 =  1.34868e-11
  Excitation energy:                                             313.978464 eV
  Excited state 11 (A)                                             [converged]
  Term symbol:  12 (-) A                                    R^2 =  9.39586e-11
  Excitation energy:                                             314.842286 eV
  Excited state 12 (A)                                             [converged]
  Term symbol:  13 (-) A                                    R^2 =  4.59370e-11
  Excitation energy:                                             314.851511 eV
  Excited state 13 (A)                                             [converged]
  Term symbol:  14 (-) A                                    R^2 =  5.09435e-11
  Excitation energy:                                             315.042269 eV
  Excited state 14 (A)                                             [converged]
  Term symbol:  15 (-) A                                    R^2 =  1.13424e-11
  Excitation energy:                                             315.117833 eV
  Excited state 15 (A)                                             [converged]
  Term symbol:  16 (-) A                                    R^2 =  8.56067e-12
  Excitation energy:                                             315.347750 eV
  Excited state 16 (A)                                             [converged]
  Term symbol:  17 (-) A                                    R^2 =  4.91035e-11
  Excitation energy:                                             315.360433 eV
  Excited state 17 (A)                                             [converged]
  Term symbol:  18 (-) A                                    R^2 =  8.64380e-12
  Excitation energy:                                             315.844452 eV
  Excited state 18 (A)                                         [not converged]
  Term symbol:  19 (-) A                                    R^2 =  4.64117e-03
  Excitation energy:                                             332.550597 eV
  Excited state 19 (A)                                         [not converged]
  Term symbol:  20 (-) A                                    R^2 =  3.75744e-04
  Excitation energy:                                             332.556148 eV
  Excited state 20 (A)                                         [not converged]
  Term symbol:  21 (-) A                                    R^2 =  8.82841e-05
  Excitation energy:                                             332.630123 eV

                    Orbital Energies (a.u.)
 --------------------------------------------------------------

 Alpha MOs
 -- Occupied --
-26.740 -26.740 -26.739 -26.608 -11.969  -2.138  -2.032  -2.030
 -1.858  -1.316  -1.213  -1.212  -1.160  -1.057  -1.056  -1.027
 -1.025  -1.024  -1.010  -0.919  -0.916

 Beta MOs
 -- Occupied --
-26.740 -26.740 -26.739 -26.560 -11.969  -2.138  -2.032  -2.030
 -1.664  -1.316  -1.213  -1.212  -1.160  -1.057  -1.056  -1.026
 -1.025  -1.010  -0.865  -0.864

          Ground-State Mulliken Net Atomic Charges

     Atom                 Charge (a.u.)    Spin (a.u.)
  --------------------------------------------------------
      1 C                     1.299961      -0.003091
      2 F                    -0.106693      -0.000217
      3 F                    -0.106833      -0.000216
      4 F                     0.022576       1.003714
      5 F                    -0.109011      -0.000190
  --------------------------------------------------------
  Sum of atomic charges =     1.000000

                    Cartesian Multipole Moments
 -----------------------------------------------------------------
    Charge (ESU x 10^10)
                 4.8032
    Dipole Moment (Debye)
         X      -2.9852      Y      12.3881      Z      -0.4880
       Tot      12.7520
    Quadrupole Moments (Debye-Ang)
        XX     -18.6633     XY      -7.3705     YY      12.4894
        XZ      -0.1861     YZ      -1.7731     ZZ     -20.9452

 Total job time:  1869.99s(wall), 1826.28s(cpu)
        *  Thank you very much for using Q-Chem.  Have a nice day.  *
