 Q-Chem 4.3, Q-Chem, Inc., Pleasanton, CA (2015)
 Q-Chem 4.3.0 for Intel X86 Linux

User input:
--------------------------------------------------------------
$comment
XAS calculation for valence excited states for CF4+ using cvs-adc(2) + 6-31G* basis set
job 1 - determination of HF orbitals
$end

$molecule
1 2
6  -0.69934  2.34967  0.0
9  0.60215  2.34967  -0.0
9  -1.13316  3.29245  0.78541
9  -1.13317  1.1981  0.42375
9  -1.13317  2.55847  -1.20916
$end

$comment
cvs-adc(2) calculation
$end

$rem
mem_total 3000
mem_static 1500
sym_ignore true
method cvs-adc(2)
basis 6-31G*
ee_singlets 20
cc_rest_occ 5                  !only excitations from the lowest N orbitals
unrestricted  true
max_scf_cycles 200
SCF_ALGORITHM = DIIS_GDM
SCF_CONVERGENCE = 7
THRESH = 10
$end
--------------------------------------------------------------

             Standard Nuclear Orientation (Angstroms)
    I     Atom           X                Y                Z
 ----------------------------------------------------------------
    1      C      -0.6993400000     2.3496700000     0.0000000000
    2      F       0.6021500000     2.3496700000     0.0000000000
    3      F      -1.1331600000     3.2924500000     0.7854100000
    4      F      -1.1331700000     1.1981000000     0.4237500000
    5      F      -1.1331700000     2.5584700000    -1.2091600000
 ----------------------------------------------------------------

   47    -435.0677923282      7.27E-08 Convergence criterion met
 Total energy in the final basis set = -435.0677923282
  Term symbol:  2 (-) A                                     R^2 =  6.45517e-14
  Excitation energy:                                             290.710185 eV
  Term symbol:  3 (-) A                                     R^2 =  1.03573e-13
  Excitation energy:                                             299.428295 eV
  Term symbol:  4 (-) A                                     R^2 =  1.54061e-13
  Excitation energy:                                             301.996210 eV
  Term symbol:  5 (-) A                                     R^2 =  5.47989e-14
  Excitation energy:                                             302.076529 eV
  Term symbol:  6 (-) A                                     R^2 =  1.04061e-13
  Excitation energy:                                             302.080328 eV
  Term symbol:  7 (-) A                                     R^2 =  1.06825e-13
  Excitation energy:                                             304.074961 eV
  Term symbol:  8 (-) A                                     R^2 =  1.91459e-13
  Excitation energy:                                             304.090492 eV
  Term symbol:  9 (-) A                                     R^2 =  3.18449e-13
  Excitation energy:                                             304.555366 eV
  Term symbol:  10 (-) A                                    R^2 =  1.41186e-13
  Excitation energy:                                             307.095881 eV
  Excited state 10 (A)                                             [converged]
  Term symbol:  11 (-) A                                    R^2 =  2.00794e-12
  Excitation energy:                                             313.296941 eV
  Excited state 11 (A)                                             [converged]
  Term symbol:  12 (-) A                                    R^2 =  6.64229e-13
  Excitation energy:                                             313.883986 eV
  Excited state 12 (A)                                             [converged]
  Term symbol:  13 (-) A                                    R^2 =  9.67514e-13
  Excitation energy:                                             314.307086 eV
  Excited state 13 (A)                                             [converged]
  Term symbol:  14 (-) A                                    R^2 =  3.10118e-12
  Excitation energy:                                             314.564185 eV
  Excited state 14 (A)                                             [converged]
  Term symbol:  15 (-) A                                    R^2 =  6.14088e-13
  Excitation energy:                                             314.934336 eV
  Excited state 15 (A)                                             [converged]
  Term symbol:  16 (-) A                                    R^2 =  9.10432e-13
  Excitation energy:                                             315.021511 eV
  Excited state 16 (A)                                             [converged]
  Term symbol:  17 (-) A                                    R^2 =  6.97970e-13
  Excitation energy:                                             315.736167 eV
  Excited state 17 (A)                                             [converged]
  Term symbol:  18 (-) A                                    R^2 =  1.45148e-12
  Excitation energy:                                             316.231747 eV
  Excited state 18 (A)                                         [not converged]
  Term symbol:  19 (-) A                                    R^2 =  1.96504e-05
  Excitation energy:                                             329.130803 eV
  Excited state 19 (A)                                             [converged]
  Term symbol:  20 (-) A                                    R^2 =  2.39447e-07
  Excitation energy:                                             329.710354 eV
  Excited state 20 (A)                                         [not converged]
  Term symbol:  21 (-) A                                    R^2 =  1.60868e-06
  Excitation energy:                                             329.996205 eV

                    Orbital Energies (a.u.)
 --------------------------------------------------------------

 Alpha MOs
 -- Occupied --
-27.007 -26.681 -26.658 -26.658 -11.930  -2.320  -2.057  -1.970
 -1.956  -1.443  -1.417  -1.318  -1.228  -1.140  -1.127  -1.036
 -1.009  -1.007  -0.968  -0.963  -0.946

 Beta MOs
 -- Occupied --
-26.955 -26.677 -26.658 -26.657 -11.932  -2.171  -2.026  -1.960
 -1.954  -1.398  -1.273  -1.221  -1.151  -1.119  -1.012  -1.001
 -0.998  -0.967  -0.960  -0.944

          Ground-State Mulliken Net Atomic Charges

     Atom                 Charge (a.u.)    Spin (a.u.)
  --------------------------------------------------------
      1 C                     1.330286      -0.077017
      2 F                    -0.232558       0.013626
      3 F                    -0.232596       0.013535
      4 F                     0.345741       0.978350
      5 F                    -0.210872       0.071506
  --------------------------------------------------------
  Sum of atomic charges =     1.000000

                    Cartesian Multipole Moments
 -----------------------------------------------------------------
    Charge (ESU x 10^10)
                 4.8032
    Dipole Moment (Debye)
         X      -4.6370      Y       8.0691      Z       1.0371
       Tot       9.3642
    Quadrupole Moments (Debye-Ang)
        XX     -17.6431     XY      -7.0867     YY      -6.9494
        XZ      -0.9796     YZ       0.8855     ZZ     -21.2134

 Total job time:  1232.41s(wall), 1197.89s(cpu)
        *  Thank you very much for using Q-Chem.  Have a nice day.  *
