 Q-Chem 4.3, Q-Chem, Inc., Pleasanton, CA (2015)
 Q-Chem 4.3.0 for Intel X86 Linux

User input:
--------------------------------------------------------------
$comment
XAS calculation for valence excited states for CF4+ using cvs-adc(2) + 6-31G* basis set
job 1 - determination of HF orbitals
$end

$molecule
1 2
6  -0.443927  3.050266  -0.274651
9  0.670114  2.612505  -0.113217
9  -1.033814  3.541691  0.657363
9  -1.585994  -0.078929  0.94907
9  -1.008985  2.880906  -1.319739
$end

$comment
cvs-adc(2) calculation
$end

$rem
mem_total 3000
mem_static 1500
sym_ignore true
method cvs-adc(2)
basis 6-31G*
ee_singlets 20
cc_rest_occ 5                  !only excitations from the lowest N orbitals
unrestricted  true
max_scf_cycles 200
SCF_ALGORITHM = DIIS_GDM
SCF_CONVERGENCE = 7
THRESH = 10
$end
--------------------------------------------------------------

             Standard Nuclear Orientation (Angstroms)
    I     Atom           X                Y                Z
 ----------------------------------------------------------------
    1      C      -0.4439270000     3.0502660000    -0.2746510000
    2      F       0.6701140000     2.6125050000    -0.1132170000
    3      F      -1.0338140000     3.5416910000     0.6573630000
    4      F      -1.5859940000    -0.0789290000     0.9490700000
    5      F      -1.0089850000     2.8809060000    -1.3197390000
 ----------------------------------------------------------------

  140    -435.1750456197      8.70E-08 Convergence criterion met
 Total energy in the final basis set = -435.1750456197
  Term symbol:  2 (-) A                                     R^2 =  5.40259e-14
  Excitation energy:                                             294.561947 eV
  Term symbol:  3 (-) A                                     R^2 =  2.69064e-14
  Excitation energy:                                             296.479153 eV
  Term symbol:  4 (-) A                                     R^2 =  2.57387e-14
  Excitation energy:                                             303.288233 eV
  Term symbol:  5 (-) A                                     R^2 =  1.68565e-14
  Excitation energy:                                             304.734858 eV
  Term symbol:  6 (-) A                                     R^2 =  1.42459e-14
  Excitation energy:                                             306.091200 eV
  Term symbol:  7 (-) A                                     R^2 =  1.43126e-14
  Excitation energy:                                             306.278730 eV
  Term symbol:  8 (-) A                                     R^2 =  1.16308e-14
  Excitation energy:                                             307.591916 eV
  Term symbol:  9 (-) A                                     R^2 =  3.05296e-14
  Excitation energy:                                             308.296775 eV
  Term symbol:  10 (-) A                                    R^2 =  2.17160e-14
  Excitation energy:                                             308.473717 eV
  Excited state 10 (A)                                             [converged]
  Term symbol:  11 (-) A                                    R^2 =  5.41409e-14
  Excitation energy:                                             313.540991 eV
  Excited state 11 (A)                                             [converged]
  Term symbol:  12 (-) A                                    R^2 =  1.03076e-13
  Excitation energy:                                             313.728719 eV
  Excited state 12 (A)                                             [converged]
  Term symbol:  13 (-) A                                    R^2 =  7.16942e-14
  Excitation energy:                                             314.265181 eV
  Excited state 13 (A)                                             [converged]
  Term symbol:  14 (-) A                                    R^2 =  8.21653e-14
  Excitation energy:                                             314.975618 eV
  Excited state 14 (A)                                             [converged]
  Term symbol:  15 (-) A                                    R^2 =  1.35620e-13
  Excitation energy:                                             314.997478 eV
  Excited state 15 (A)                                             [converged]
  Term symbol:  16 (-) A                                    R^2 =  5.67520e-13
  Excitation energy:                                             315.345842 eV
  Excited state 16 (A)                                             [converged]
  Term symbol:  17 (-) A                                    R^2 =  2.15051e-13
  Excitation energy:                                             315.381039 eV
  Excited state 17 (A)                                             [converged]
  Term symbol:  18 (-) A                                    R^2 =  8.61968e-13
  Excitation energy:                                             315.535178 eV
  Excited state 18 (A)                                         [not converged]
  Term symbol:  19 (-) A                                    R^2 =  7.75104e-06
  Excitation energy:                                             332.557360 eV
  Excited state 19 (A)                                         [not converged]
  Term symbol:  20 (-) A                                    R^2 =  5.10590e-04
  Excitation energy:                                             332.646430 eV
  Excited state 20 (A)                                         [not converged]
  Term symbol:  21 (-) A                                    R^2 =  7.79130e-05
  Excitation energy:                                             332.747986 eV

                    Orbital Energies (a.u.)
 --------------------------------------------------------------

 Alpha MOs
 -- Occupied --
-26.753 -26.749 -26.749 -26.555 -11.950  -2.186  -2.079  -2.074
 -1.807  -1.329  -1.252  -1.252  -1.200  -1.079  -1.079  -1.053
 -1.050  -1.026  -0.975  -0.869  -0.867

 Beta MOs
 -- Occupied --
-26.753 -26.749 -26.749 -26.507 -11.950  -2.186  -2.079  -2.074
 -1.615  -1.329  -1.252  -1.252  -1.200  -1.079  -1.079  -1.053
 -1.050  -1.026  -0.817  -0.815

          Ground-State Mulliken Net Atomic Charges

     Atom                 Charge (a.u.)    Spin (a.u.)
  --------------------------------------------------------
      1 C                     1.211025      -0.000555
      2 F                    -0.075012       0.000030
      3 F                    -0.074661       0.000029
      4 F                     0.003556       1.000470
      5 F                    -0.064908       0.000026
  --------------------------------------------------------
  Sum of atomic charges =     1.000000

                    Cartesian Multipole Moments
 -----------------------------------------------------------------
    Charge (ESU x 10^10)
                 4.8032
    Dipole Moment (Debye)
         X      -2.1736      Y      14.5746      Z      -1.3168
       Tot      14.7945
    Quadrupole Moments (Debye-Ang)
        XX     -19.3391     XY      -6.5341     YY      24.3283
        XZ       0.2225     YZ      -4.2185     ZZ     -20.4006

 Total job time:  1365.45s(wall), 1312.69s(cpu)
        *  Thank you very much for using Q-Chem.  Have a nice day.  *
