 Q-Chem 4.3, Q-Chem, Inc., Pleasanton, CA (2015)
 Q-Chem 4.3.0 for Intel X86 Linux

User input:
--------------------------------------------------------------
$comment
XAS calculation for valence excited states for CF4+ using cvs-adc(2) + 6-31G* basis set
job 1 - determination of HF orbitals
$end

$molecule
1 2
6  -0.598253  2.627658  -0.109342
9  0.581328  2.325232  0.007289
9  -1.139432  3.260549  0.785994
9  -1.167824  1.095872  0.469001
9  -1.135272  2.541452  -1.19322
$end

$comment
cvs-adc(2) calculation
$end

$rem
mem_total 3000
mem_static 1500
sym_ignore true
method cvs-adc(2)
basis 6-31G*
ee_singlets 20
cc_rest_occ 5                  !only excitations from the lowest N orbitals
unrestricted  true
max_scf_cycles 200
SCF_ALGORITHM = DIIS_GDM
SCF_CONVERGENCE = 7
THRESH = 10
$end
--------------------------------------------------------------

             Standard Nuclear Orientation (Angstroms)
    I     Atom           X                Y                Z
 ----------------------------------------------------------------
    1      C      -0.5982530000     2.6276580000    -0.1093420000
    2      F       0.5813280000     2.3252320000     0.0072890000
    3      F      -1.1394320000     3.2605490000     0.7859940000
    4      F      -1.1678240000     1.0958720000     0.4690010000
    5      F      -1.1352720000     2.5414520000    -1.1932200000
 ----------------------------------------------------------------

   50    -435.1511521743      4.09E-08 Convergence criterion met
 Total energy in the final basis set = -435.1511521743
  Term symbol:  2 (-) A                                     R^2 =  6.96814e-14
  Excitation energy:                                             295.189554 eV
  Term symbol:  3 (-) A                                     R^2 =  1.02844e-13
  Excitation energy:                                             297.341277 eV
  Term symbol:  4 (-) A                                     R^2 =  1.25951e-13
  Excitation energy:                                             298.241190 eV
  Term symbol:  5 (-) A                                     R^2 =  2.89045e-14
  Excitation energy:                                             304.091344 eV
  Term symbol:  6 (-) A                                     R^2 =  4.59258e-14
  Excitation energy:                                             305.598396 eV
  Term symbol:  7 (-) A                                     R^2 =  3.73828e-14
  Excitation energy:                                             305.895878 eV
  Term symbol:  8 (-) A                                     R^2 =  8.23499e-14
  Excitation energy:                                             306.047219 eV
  Term symbol:  9 (-) A                                     R^2 =  3.54771e-14
  Excitation energy:                                             307.799319 eV
  Term symbol:  10 (-) A                                    R^2 =  6.40157e-14
  Excitation energy:                                             308.083669 eV
  Excited state 10 (A)                                             [converged]
  Term symbol:  11 (-) A                                    R^2 =  1.45164e-13
  Excitation energy:                                             313.770399 eV
  Excited state 11 (A)                                             [converged]
  Term symbol:  12 (-) A                                    R^2 =  1.81537e-13
  Excitation energy:                                             315.051007 eV
  Excited state 12 (A)                                             [converged]
  Term symbol:  13 (-) A                                    R^2 =  2.29011e-13
  Excitation energy:                                             315.268586 eV
  Excited state 13 (A)                                             [converged]
  Term symbol:  14 (-) A                                    R^2 =  1.27112e-13
  Excitation energy:                                             315.418684 eV
  Excited state 14 (A)                                             [converged]
  Term symbol:  15 (-) A                                    R^2 =  9.22867e-13
  Excitation energy:                                             315.735450 eV
  Excited state 15 (A)                                             [converged]
  Term symbol:  16 (-) A                                    R^2 =  1.98232e-13
  Excitation energy:                                             315.800964 eV
  Excited state 16 (A)                                             [converged]
  Term symbol:  17 (-) A                                    R^2 =  6.50477e-12
  Excitation energy:                                             317.320093 eV
  Excited state 17 (A)                                             [converged]
  Term symbol:  18 (-) A                                    R^2 =  1.26205e-10
  Excitation energy:                                             317.828860 eV
  Excited state 18 (A)                                         [not converged]
  Term symbol:  19 (-) A                                    R^2 =  1.32811e-06
  Excitation energy:                                             330.719903 eV
  Excited state 19 (A)                                         [not converged]
  Term symbol:  20 (-) A                                    R^2 =  4.96994e-06
  Excitation energy:                                             331.398239 eV
  Excited state 20 (A)                                         [not converged]
  Term symbol:  21 (-) A                                    R^2 =  8.40128e-06
  Excitation energy:                                             331.566442 eV

                    Orbital Energies (a.u.)
 --------------------------------------------------------------

 Alpha MOs
 -- Occupied --
-26.772 -26.717 -26.716 -26.716 -11.938  -2.161  -2.048  -2.043
 -2.027  -1.315  -1.229  -1.225  -1.216  -1.186  -1.093  -1.053
 -1.052  -1.029  -1.026  -1.015  -1.000

 Beta MOs
 -- Occupied --
-26.721 -26.718 -26.716 -26.716 -11.938  -2.156  -2.048  -2.043
 -1.840  -1.312  -1.225  -1.223  -1.202  -1.063  -1.052  -1.051
 -1.033  -0.999  -0.993  -0.984

          Ground-State Mulliken Net Atomic Charges

     Atom                 Charge (a.u.)    Spin (a.u.)
  --------------------------------------------------------
      1 C                     1.324435      -0.013044
      2 F                    -0.145939       0.002531
      3 F                    -0.144956       0.002118
      4 F                     0.094198       1.011944
      5 F                    -0.127738      -0.003549
  --------------------------------------------------------
  Sum of atomic charges =     1.000000

                    Cartesian Multipole Moments
 -----------------------------------------------------------------
    Charge (ESU x 10^10)
                 4.8032
    Dipole Moment (Debye)
         X      -3.3854      Y      11.3036      Z      -0.0696
       Tot      11.7998
    Quadrupole Moments (Debye-Ang)
        XX     -18.2774     XY      -7.3683     YY       7.5549
        XZ      -0.4771     YZ      -0.9107     ZZ     -21.0672

 Total job time:  1367.25s(wall), 1323.16s(cpu)
        *  Thank you very much for using Q-Chem.  Have a nice day.  *
