 Q-Chem 4.3, Q-Chem, Inc., Pleasanton, CA (2015)
 Q-Chem 4.3.0 for Intel X86 Linux

User input:
--------------------------------------------------------------
$comment
XAS calculation for valence excited states for CF4+ using cvs-adc(2) + 6-31G* basis set
job 1 - determination of HF orbitals
$end

$molecule
1 2
6  -0.479085  2.944754  -0.227009
9  0.589481  2.413343  -0.031888
9  -1.102116  3.334446  0.733468
9  -1.334855  0.622697  0.664927
9  -1.088981  2.652332  -1.223121
$end

$comment
cvs-adc(2) calculation
$end

$rem
mem_total 3000
mem_static 1500
sym_ignore true
method cvs-adc(2)
basis 6-31G*
ee_singlets 20
cc_rest_occ 5                  !only excitations from the lowest N orbitals
unrestricted  true
max_scf_cycles 200
SCF_ALGORITHM = DIIS_GDM
SCF_CONVERGENCE = 7
THRESH = 10
$end
--------------------------------------------------------------

             Standard Nuclear Orientation (Angstroms)
    I     Atom           X                Y                Z
 ----------------------------------------------------------------
    1      C      -0.4790850000     2.9447540000    -0.2270090000
    2      F       0.5894810000     2.4133430000    -0.0318880000
    3      F      -1.1021160000     3.3344460000     0.7334680000
    4      F      -1.3348550000     0.6226970000     0.6649270000
    5      F      -1.0889810000     2.6523320000    -1.2231210000
 ----------------------------------------------------------------

   83    -435.1642223017      8.22E-08 Convergence criterion met
 Total energy in the final basis set = -435.1642223017
  Term symbol:  2 (-) A                                     R^2 =  2.42492e-13
  Excitation energy:                                             293.975281 eV
  Term symbol:  3 (-) A                                     R^2 =  1.53820e-13
  Excitation energy:                                             295.874183 eV
  Term symbol:  4 (-) A                                     R^2 =  1.58979e-13
  Excitation energy:                                             304.225186 eV
  Term symbol:  5 (-) A                                     R^2 =  8.59450e-14
  Excitation energy:                                             304.657317 eV
  Term symbol:  6 (-) A                                     R^2 =  2.00716e-13
  Excitation energy:                                             305.768632 eV
  Term symbol:  7 (-) A                                     R^2 =  3.19171e-13
  Excitation energy:                                             305.861185 eV
  Term symbol:  8 (-) A                                     R^2 =  2.97801e-13
  Excitation energy:                                             305.917047 eV
  Term symbol:  9 (-) A                                     R^2 =  1.30836e-13
  Excitation energy:                                             307.914111 eV
  Term symbol:  10 (-) A                                    R^2 =  1.17822e-13
  Excitation energy:                                             308.057481 eV
  Excited state 10 (A)                                             [converged]
  Term symbol:  11 (-) A                                    R^2 =  4.26370e-13
  Excitation energy:                                             313.359056 eV
  Excited state 11 (A)                                             [converged]
  Term symbol:  12 (-) A                                    R^2 =  2.89458e-13
  Excitation energy:                                             314.777981 eV
  Excited state 12 (A)                                             [converged]
  Term symbol:  13 (-) A                                    R^2 =  2.23558e-13
  Excitation energy:                                             314.787225 eV
  Excited state 13 (A)                                             [converged]
  Term symbol:  14 (-) A                                    R^2 =  2.78893e-13
  Excitation energy:                                             314.800617 eV
  Excited state 14 (A)                                             [converged]
  Term symbol:  15 (-) A                                    R^2 =  4.81783e-13
  Excitation energy:                                             315.201230 eV
  Excited state 15 (A)                                             [converged]
  Term symbol:  16 (-) A                                    R^2 =  4.37726e-13
  Excitation energy:                                             315.233465 eV
  Excited state 16 (A)                                             [converged]
  Term symbol:  17 (-) A                                    R^2 =  8.06385e-13
  Excitation energy:                                             315.534267 eV
  Excited state 17 (A)                                             [converged]
  Term symbol:  18 (-) A                                    R^2 =  8.31535e-13
  Excitation energy:                                             316.497267 eV
  Excited state 18 (A)                                         [not converged]
  Term symbol:  19 (-) A                                    R^2 =  2.51231e-06
  Excitation energy:                                             332.534054 eV
  Excited state 19 (A)                                         [not converged]
  Term symbol:  20 (-) A                                    R^2 =  2.92418e-05
  Excitation energy:                                             332.583603 eV
  Excited state 20 (A)                                         [not converged]
  Term symbol:  21 (-) A                                    R^2 =  3.76165e-05
  Excitation energy:                                             332.714041 eV

                    Orbital Energies (a.u.)
 --------------------------------------------------------------

 Alpha MOs
 -- Occupied --
-26.745 -26.742 -26.742 -26.612 -11.947  -2.181  -2.069  -2.066
 -1.864  -1.325  -1.245  -1.245  -1.195  -1.074  -1.074  -1.045
 -1.044  -1.027  -1.019  -0.925  -0.922

 Beta MOs
 -- Occupied --
-26.745 -26.742 -26.742 -26.564 -11.947  -2.181  -2.069  -2.066
 -1.671  -1.325  -1.245  -1.245  -1.195  -1.074  -1.073  -1.044
 -1.042  -1.019  -0.872  -0.870

          Ground-State Mulliken Net Atomic Charges

     Atom                 Charge (a.u.)    Spin (a.u.)
  --------------------------------------------------------
      1 C                     1.220581      -0.005219
      2 F                    -0.084275       0.000404
      3 F                    -0.084301       0.000392
      4 F                     0.023445       1.004277
      5 F                    -0.075449       0.000145
  --------------------------------------------------------
  Sum of atomic charges =     1.000000

                    Cartesian Multipole Moments
 -----------------------------------------------------------------
    Charge (ESU x 10^10)
                 4.8032
    Dipole Moment (Debye)
         X      -2.3528      Y      14.0247      Z      -1.0625
       Tot      14.2603
    Quadrupole Moments (Debye-Ang)
        XX     -19.1955     XY      -6.6122     YY      21.4699
        XZ       0.0830     YZ      -3.5240     ZZ     -20.5565

 Total job time:  1258.19s(wall), 1213.89s(cpu)
        *  Thank you very much for using Q-Chem.  Have a nice day.  *
