 Q-Chem 4.3, Q-Chem, Inc., Pleasanton, CA (2015)
 Q-Chem 4.3.0 for Intel X86 Linux

User input:
--------------------------------------------------------------
$comment
XAS calculation for valence excited states for CF4+ using cvs-adc(2) + 6-31G* basis set
job 1 - determination of HF orbitals
$end

$molecule
1 2
6  -0.580295  2.685281  -0.137703
9  0.670673  2.570179  -0.092569
9  -1.05207  3.508911  0.6866
9  -1.457741  0.279354  0.803994
9  -1.033405  2.828265  -1.311048
$end

$comment
cvs-adc(2) calculation
$end

$rem
mem_total 3000
mem_static 1500
sym_ignore true
method cvs-adc(2)
basis 6-31G*
ee_singlets 20
cc_rest_occ 5                  !only excitations from the lowest N orbitals
unrestricted  true
max_scf_cycles 200
SCF_ALGORITHM = DIIS_GDM
SCF_CONVERGENCE = 7
THRESH = 10
$end
--------------------------------------------------------------

             Standard Nuclear Orientation (Angstroms)
    I     Atom           X                Y                Z
 ----------------------------------------------------------------
    1      C      -0.5802950000     2.6852810000    -0.1377030000
    2      F       0.6706730000     2.5701790000    -0.0925690000
    3      F      -1.0520700000     3.5089110000     0.6866000000
    4      F      -1.4577410000     0.2793540000     0.8039940000
    5      F      -1.0334050000     2.8282650000    -1.3110480000
 ----------------------------------------------------------------

   84    -435.1283884285      9.15E-08 Convergence criterion met
 Total energy in the final basis set = -435.1283884285
  Term symbol:  2 (-) A                                     R^2 =  6.76696e-11
  Excitation energy:                                             292.649734 eV
  Term symbol:  3 (-) A                                     R^2 =  1.41578e-11
  Excitation energy:                                             294.586932 eV
  Term symbol:  4 (-) A                                     R^2 =  3.06037e-10
  Excitation energy:                                             303.632780 eV
  Term symbol:  5 (-) A                                     R^2 =  2.39349e-08
  Excitation energy:                                             303.839675 eV
  Term symbol:  6 (-) A                                     R^2 =  3.85264e-10
  Excitation energy:                                             304.327400 eV
  Term symbol:  7 (-) A                                     R^2 =  2.12132e-09
  Excitation energy:                                             305.179683 eV
  Term symbol:  8 (-) A                                     R^2 =  3.19214e-09
  Excitation energy:                                             305.644971 eV
  Term symbol:  9 (-) A                                     R^2 =  1.25551e-08
  Excitation energy:                                             305.883348 eV
  Term symbol:  10 (-) A                                    R^2 =  6.05958e-10
  Excitation energy:                                             306.354581 eV
  Excited state 10 (A)                                             [converged]
  Term symbol:  11 (-) A                                    R^2 =  9.18316e-09
  Excitation energy:                                             314.291089 eV
  Excited state 11 (A)                                             [converged]
  Term symbol:  12 (-) A                                    R^2 =  4.62263e-08
  Excitation energy:                                             314.799019 eV
  Excited state 12 (A)                                             [converged]
  Term symbol:  13 (-) A                                    R^2 =  2.34671e-07
  Excitation energy:                                             314.800165 eV
  Excited state 13 (A)                                             [converged]
  Term symbol:  14 (-) A                                    R^2 =  1.12479e-08
  Excitation energy:                                             315.072581 eV
  Excited state 14 (A)                                             [converged]
  Term symbol:  15 (-) A                                    R^2 =  1.30201e-08
  Excitation energy:                                             315.290368 eV
  Excited state 15 (A)                                             [converged]
  Term symbol:  16 (-) A                                    R^2 =  6.87878e-08
  Excitation energy:                                             315.315856 eV
  Excited state 16 (A)                                             [converged]
  Term symbol:  17 (-) A                                    R^2 =  5.43091e-10
  Excitation energy:                                             315.514602 eV
  Excited state 17 (A)                                             [converged]
  Term symbol:  18 (-) A                                    R^2 =  2.93613e-09
  Excitation energy:                                             315.811166 eV
  Excited state 18 (A)                                         [not converged]
  Term symbol:  19 (-) A                                    R^2 =  3.60522e-03
  Excitation energy:                                             332.519721 eV
  Excited state 19 (A)                                         [not converged]
  Term symbol:  20 (-) A                                    R^2 =  1.58542e-04
  Excitation energy:                                             332.546069 eV
  Excited state 20 (A)                                         [not converged]
  Term symbol:  21 (-) A                                    R^2 =  6.16857e-05
  Excitation energy:                                             332.617764 eV

                    Orbital Energies (a.u.)
 --------------------------------------------------------------

 Alpha MOs
 -- Occupied --
-26.739 -26.738 -26.734 -26.628 -11.966  -2.140  -2.033  -2.027
 -1.876  -1.314  -1.213  -1.212  -1.161  -1.056  -1.055  -1.043
 -1.025  -1.022  -1.008  -0.937  -0.934

 Beta MOs
 -- Occupied --
-26.739 -26.739 -26.734 -26.579 -11.966  -2.140  -2.033  -2.028
 -1.682  -1.315  -1.213  -1.212  -1.161  -1.057  -1.055  -1.025
 -1.023  -1.008  -0.882  -0.882

          Ground-State Mulliken Net Atomic Charges

     Atom                 Charge (a.u.)    Spin (a.u.)
  --------------------------------------------------------
      1 C                     1.286007      -0.004680
      2 F                    -0.103982      -0.000409
      3 F                    -0.104018      -0.000407
      4 F                     0.034297       1.005875
      5 F                    -0.112304      -0.000380
  --------------------------------------------------------
  Sum of atomic charges =     1.000000

                    Cartesian Multipole Moments
 -----------------------------------------------------------------
    Charge (ESU x 10^10)
                 4.8032
    Dipole Moment (Debye)
         X      -3.0725      Y      12.1013      Z      -0.3362
       Tot      12.4898
    Quadrupole Moments (Debye-Ang)
        XX     -18.5416     XY      -7.3303     YY      11.2267
        XZ      -0.3115     YZ      -1.4424     ZZ     -20.9817

 Total job time:  1848.13s(wall), 1791.41s(cpu)
        *  Thank you very much for using Q-Chem.  Have a nice day.  *
