 Q-Chem 4.3, Q-Chem, Inc., Pleasanton, CA (2015)
 Q-Chem 4.3.0 for Intel X86 Linux

User input:
--------------------------------------------------------------
$comment
XAS calculation for valence excited states for CF4+ using cvs-adc(2) + 6-31G* basis set
job 1 - determination of HF orbitals
$end

$molecule
1 2
6  -0.517637  2.860088  -0.209004
9  0.683061  2.610854  -0.110557
9  -1.037647  3.548946  0.667607
9  -1.543817  0.038901  0.901354
9  -1.013717  2.877594  -1.326391
$end

$comment
cvs-adc(2) calculation
$end

$rem
mem_total 3000
mem_static 1500
sym_ignore true
method cvs-adc(2)
basis 6-31G*
ee_singlets 20
cc_rest_occ 5                  !only excitations from the lowest N orbitals
unrestricted  true
max_scf_cycles 200
SCF_ALGORITHM = DIIS_GDM
SCF_CONVERGENCE = 7
THRESH = 10
$end
--------------------------------------------------------------

             Standard Nuclear Orientation (Angstroms)
    I     Atom           X                Y                Z
 ----------------------------------------------------------------
    1      C      -0.5176370000     2.8600880000    -0.2090040000
    2      F       0.6830610000     2.6108540000    -0.1105570000
    3      F      -1.0376470000     3.5489460000     0.6676070000
    4      F      -1.5438170000     0.0389010000     0.9013540000
    5      F      -1.0137170000     2.8775940000    -1.3263910000
 ----------------------------------------------------------------

   95    -435.1635503256      5.97E-08 Convergence criterion met
 Total energy in the final basis set = -435.1635503256
  Term symbol:  2 (-) A                                     R^2 =  1.59044e-14
  Excitation energy:                                             293.808801 eV
  Term symbol:  3 (-) A                                     R^2 =  1.82398e-14
  Excitation energy:                                             295.719720 eV
  Term symbol:  4 (-) A                                     R^2 =  9.12462e-14
  Excitation energy:                                             303.565877 eV
  Term symbol:  5 (-) A                                     R^2 =  3.79290e-14
  Excitation energy:                                             305.124214 eV
  Term symbol:  6 (-) A                                     R^2 =  6.46122e-14
  Excitation energy:                                             305.248327 eV
  Term symbol:  7 (-) A                                     R^2 =  2.18380e-14
  Excitation energy:                                             305.284985 eV
  Term symbol:  8 (-) A                                     R^2 =  1.96851e-14
  Excitation energy:                                             306.883381 eV
  Term symbol:  9 (-) A                                     R^2 =  2.07242e-14
  Excitation energy:                                             307.267972 eV
  Term symbol:  10 (-) A                                    R^2 =  6.01247e-14
  Excitation energy:                                             307.412002 eV
  Excited state 10 (A)                                             [converged]
  Term symbol:  11 (-) A                                    R^2 =  5.34152e-14
  Excitation energy:                                             313.637322 eV
  Excited state 11 (A)                                             [converged]
  Term symbol:  12 (-) A                                    R^2 =  3.32720e-14
  Excitation energy:                                             314.189307 eV
  Excited state 12 (A)                                             [converged]
  Term symbol:  13 (-) A                                    R^2 =  4.83971e-14
  Excitation energy:                                             314.576185 eV
  Excited state 13 (A)                                             [converged]
  Term symbol:  14 (-) A                                    R^2 =  1.27775e-13
  Excitation energy:                                             314.964434 eV
  Excited state 14 (A)                                             [converged]
  Term symbol:  15 (-) A                                    R^2 =  2.05149e-13
  Excitation energy:                                             314.988685 eV
  Excited state 15 (A)                                             [converged]
  Term symbol:  16 (-) A                                    R^2 =  2.26967e-13
  Excitation energy:                                             315.381215 eV
  Excited state 16 (A)                                             [converged]
  Term symbol:  17 (-) A                                    R^2 =  3.00392e-13
  Excitation energy:                                             315.417085 eV
  Excited state 17 (A)                                             [converged]
  Term symbol:  18 (-) A                                    R^2 =  6.91190e-13
  Excitation energy:                                             315.550170 eV
  Excited state 18 (A)                                         [not converged]
  Term symbol:  19 (-) A                                    R^2 =  1.72733e-06
  Excitation energy:                                             332.723423 eV
  Excited state 19 (A)                                         [not converged]
  Term symbol:  20 (-) A                                    R^2 =  1.05476e-04
  Excitation energy:                                             332.795051 eV
  Excited state 20 (A)                                         [not converged]
  Term symbol:  21 (-) A                                    R^2 =  3.73930e-06
  Excitation energy:                                             332.885979 eV

                    Orbital Energies (a.u.)
 --------------------------------------------------------------

 Alpha MOs
 -- Occupied --
-26.749 -26.746 -26.746 -26.580 -11.958  -2.167  -2.061  -2.057
 -1.831  -1.325  -1.238  -1.237  -1.184  -1.071  -1.071  -1.043
 -1.041  -1.021  -0.998  -0.892  -0.890

 Beta MOs
 -- Occupied --
-26.749 -26.746 -26.746 -26.531 -11.958  -2.167  -2.061  -2.057
 -1.638  -1.325  -1.238  -1.237  -1.184  -1.071  -1.071  -1.043
 -1.041  -1.021  -0.840  -0.838

          Ground-State Mulliken Net Atomic Charges

     Atom                 Charge (a.u.)    Spin (a.u.)
  --------------------------------------------------------
      1 C                     1.251369      -0.001431
      2 F                    -0.090197      -0.000007
      3 F                    -0.090141      -0.000007
      4 F                     0.009956       1.001449
      5 F                    -0.080986      -0.000004
  --------------------------------------------------------
  Sum of atomic charges =     1.000000

                    Cartesian Multipole Moments
 -----------------------------------------------------------------
    Charge (ESU x 10^10)
                 4.8032
    Dipole Moment (Debye)
         X      -2.6522      Y      13.3345      Z      -0.8864
       Tot      13.6246
    Quadrupole Moments (Debye-Ang)
        XX     -18.9274     XY      -7.1968     YY      17.3052
        XZ       0.0761     YZ      -2.8093     ZZ     -20.6673

 Total job time:  1237.98s(wall), 1195.48s(cpu)
        *  Thank you very much for using Q-Chem.  Have a nice day.  *
