 Q-Chem 4.3, Q-Chem, Inc., Pleasanton, CA (2015)
 Q-Chem 4.3.0 for Intel X86 Linux

User input:
--------------------------------------------------------------
$comment
XAS calculation for valence excited states for CF4+ using cvs-adc(2) + 6-31G* basis set
job 1 - determination of HF orbitals
$end

$molecule
1 2
6  -0.545187  2.76539  -0.157595
9  0.577661  2.315816  0.00931
9  -1.143844  3.251906  0.788345
9  -1.19009  1.030924  0.497168
9  -1.138445  2.537462  -1.195281
$end

$comment
cvs-adc(2) calculation
$end

$rem
mem_total 3000
mem_static 1500
sym_ignore true
method cvs-adc(2)
basis 6-31G*
ee_singlets 20
cc_rest_occ 5                  !only excitations from the lowest N orbitals
unrestricted  true
max_scf_cycles 200
SCF_ALGORITHM = DIIS_GDM
SCF_CONVERGENCE = 7
THRESH = 10
$end
--------------------------------------------------------------

             Standard Nuclear Orientation (Angstroms)
    I     Atom           X                Y                Z
 ----------------------------------------------------------------
    1      C      -0.5451870000     2.7653900000    -0.1575950000
    2      F       0.5776610000     2.3158160000     0.0093100000
    3      F      -1.1438440000     3.2519060000     0.7883450000
    4      F      -1.1900900000     1.0309240000     0.4971680000
    5      F      -1.1384450000     2.5374620000    -1.1952810000
 ----------------------------------------------------------------

   55    -435.1542047598      6.44E-08 Convergence criterion met
 Total energy in the final basis set = -435.1542047598
  Term symbol:  2 (-) A                                     R^2 =  4.49864e-14
  Excitation energy:                                             294.410711 eV
  Term symbol:  3 (-) A                                     R^2 =  7.88078e-14
  Excitation energy:                                             296.378801 eV
  Term symbol:  4 (-) A                                     R^2 =  2.44448e-13
  Excitation energy:                                             301.199222 eV
  Term symbol:  5 (-) A                                     R^2 =  7.47732e-14
  Excitation energy:                                             303.695564 eV
  Term symbol:  6 (-) A                                     R^2 =  1.40166e-13
  Excitation energy:                                             305.603519 eV
  Term symbol:  7 (-) A                                     R^2 =  2.81669e-13
  Excitation energy:                                             305.675175 eV
  Term symbol:  8 (-) A                                     R^2 =  3.34382e-13
  Excitation energy:                                             305.797299 eV
  Term symbol:  9 (-) A                                     R^2 =  3.71630e-13
  Excitation energy:                                             307.864063 eV
  Term symbol:  10 (-) A                                    R^2 =  1.44326e-13
  Excitation energy:                                             307.980653 eV
  Excited state 10 (A)                                             [converged]
  Term symbol:  11 (-) A                                    R^2 =  2.63726e-13
  Excitation energy:                                             313.453636 eV
  Excited state 11 (A)                                             [converged]
  Term symbol:  12 (-) A                                    R^2 =  1.45860e-13
  Excitation energy:                                             314.872683 eV
  Excited state 12 (A)                                             [converged]
  Term symbol:  13 (-) A                                    R^2 =  2.99787e-13
  Excitation energy:                                             315.221421 eV
  Excited state 13 (A)                                             [converged]
  Term symbol:  14 (-) A                                    R^2 =  2.22111e-13
  Excitation energy:                                             315.285735 eV
  Excited state 14 (A)                                             [converged]
  Term symbol:  15 (-) A                                    R^2 =  2.08864e-13
  Excitation energy:                                             315.646595 eV
  Excited state 15 (A)                                             [converged]
  Term symbol:  16 (-) A                                    R^2 =  7.58209e-13
  Excitation energy:                                             315.674864 eV
  Excited state 16 (A)                                             [converged]
  Term symbol:  17 (-) A                                    R^2 =  2.22715e-12
  Excitation energy:                                             318.453481 eV
  Excited state 17 (A)                                             [converged]
  Term symbol:  18 (-) A                                    R^2 =  1.98028e-11
  Excitation energy:                                             319.079354 eV
  Excited state 18 (A)                                         [not converged]
  Term symbol:  19 (-) A                                    R^2 =  1.26918e-06
  Excitation energy:                                             331.598260 eV
  Excited state 19 (A)                                             [converged]
  Term symbol:  20 (-) A                                    R^2 =  2.27839e-07
  Excitation energy:                                             331.788183 eV
  Excited state 20 (A)                                         [not converged]
  Term symbol:  21 (-) A                                    R^2 =  1.47356e-06
  Excitation energy:                                             331.823731 eV

                    Orbital Energies (a.u.)
 --------------------------------------------------------------

 Alpha MOs
 -- Occupied --
-26.733 -26.733 -26.733 -26.689 -11.947  -2.165  -2.057  -2.056
 -1.949  -1.318  -1.234  -1.234  -1.198  -1.120  -1.065  -1.062
 -1.054  -1.032  -1.013  -0.988  -0.986

 Beta MOs
 -- Occupied --
-26.733 -26.733 -26.733 -26.640 -11.947  -2.164  -2.057  -2.056
 -1.759  -1.318  -1.234  -1.234  -1.192  -1.064  -1.063  -1.049
 -1.043  -1.013  -0.940  -0.937

          Ground-State Mulliken Net Atomic Charges

     Atom                 Charge (a.u.)    Spin (a.u.)
  --------------------------------------------------------
      1 C                     1.319140      -0.007434
      2 F                    -0.124826       0.001716
      3 F                    -0.124076       0.001446
      4 F                     0.044929       1.006052
      5 F                    -0.115167      -0.001780
  --------------------------------------------------------
  Sum of atomic charges =     1.000000

                    Cartesian Multipole Moments
 -----------------------------------------------------------------
    Charge (ESU x 10^10)
                 4.8032
    Dipole Moment (Debye)
         X      -2.8313      Y      12.7352      Z      -0.5656
       Tot      13.0584
    Quadrupole Moments (Debye-Ang)
        XX     -18.8053     XY      -7.1380     YY      14.3811
        XZ      -0.1245     YZ      -2.0154     ZZ     -20.8529

 Total job time:  1601.71s(wall), 1550.59s(cpu)
        *  Thank you very much for using Q-Chem.  Have a nice day.  *
