 Q-Chem 4.3, Q-Chem, Inc., Pleasanton, CA (2015)
 Q-Chem 4.3.0 for Intel X86 Linux

User input:
--------------------------------------------------------------
$comment
XAS calculation for valence excited states for CF4+ using cvs-adc(2) + 6-31G* basis set
job 1 - determination of HF orbitals
$end

$molecule
1 2
6  -0.512432  2.860812  -0.199347
9  0.603206  2.46235  -0.05065
9  -1.082465  3.380401  0.711923
9  -1.368609  0.52835  0.703167
9  -1.06754  2.704735  -1.238525
$end

$comment
cvs-adc(2) calculation
$end

$rem
mem_total 3000
mem_static 1500
sym_ignore true
method cvs-adc(2)
basis 6-31G*
ee_singlets 20
cc_rest_occ 5                  !only excitations from the lowest N orbitals
unrestricted  true
max_scf_cycles 200
SCF_ALGORITHM = DIIS_GDM
SCF_CONVERGENCE = 7
THRESH = 10
$end
--------------------------------------------------------------

             Standard Nuclear Orientation (Angstroms)
    I     Atom           X                Y                Z
 ----------------------------------------------------------------
    1      C      -0.5124320000     2.8608120000    -0.1993470000
    2      F       0.6032060000     2.4623500000    -0.0506500000
    3      F      -1.0824650000     3.3804010000     0.7119230000
    4      F      -1.3686090000     0.5283500000     0.7031670000
    5      F      -1.0675400000     2.7047350000    -1.2385250000
 ----------------------------------------------------------------

   75    -435.1778422201      4.66E-08 Convergence criterion met
 Total energy in the final basis set = -435.1778422201
  Term symbol:  2 (-) A                                     R^2 =  4.69681e-14
  Excitation energy:                                             294.741383 eV
  Term symbol:  3 (-) A                                     R^2 =  7.06395e-14
  Excitation energy:                                             296.677635 eV
  Term symbol:  4 (-) A                                     R^2 =  1.50664e-13
  Excitation energy:                                             303.705567 eV
  Term symbol:  5 (-) A                                     R^2 =  3.71778e-14
  Excitation energy:                                             304.581004 eV
  Term symbol:  6 (-) A                                     R^2 =  1.37493e-13
  Excitation energy:                                             305.109667 eV
  Term symbol:  7 (-) A                                     R^2 =  3.91326e-14
  Excitation energy:                                             306.581201 eV
  Term symbol:  8 (-) A                                     R^2 =  3.03326e-14
  Excitation energy:                                             306.738407 eV
  Term symbol:  9 (-) A                                     R^2 =  2.89556e-14
  Excitation energy:                                             308.797661 eV
  Term symbol:  10 (-) A                                    R^2 =  7.30403e-14
  Excitation energy:                                             308.948274 eV
  Excited state 10 (A)                                             [converged]
  Term symbol:  11 (-) A                                    R^2 =  5.29226e-14
  Excitation energy:                                             313.472747 eV
  Excited state 11 (A)                                             [converged]
  Term symbol:  12 (-) A                                    R^2 =  4.64216e-14
  Excitation energy:                                             314.752862 eV
  Excited state 12 (A)                                             [converged]
  Term symbol:  13 (-) A                                    R^2 =  6.60758e-14
  Excitation energy:                                             314.825036 eV
  Excited state 13 (A)                                             [converged]
  Term symbol:  14 (-) A                                    R^2 =  8.41890e-14
  Excitation energy:                                             314.874601 eV
  Excited state 14 (A)                                             [converged]
  Term symbol:  15 (-) A                                    R^2 =  9.80461e-14
  Excitation energy:                                             314.981250 eV
  Excited state 15 (A)                                             [converged]
  Term symbol:  16 (-) A                                    R^2 =  1.40134e-13
  Excitation energy:                                             315.249555 eV
  Excited state 16 (A)                                             [converged]
  Term symbol:  17 (-) A                                    R^2 =  1.27949e-13
  Excitation energy:                                             315.286210 eV
  Excited state 17 (A)                                             [converged]
  Term symbol:  18 (-) A                                    R^2 =  1.39144e-12
  Excitation energy:                                             316.161100 eV
  Excited state 18 (A)                                         [not converged]
  Term symbol:  19 (-) A                                    R^2 =  6.71860e-04
  Excitation energy:                                             332.404063 eV
  Excited state 19 (A)                                         [not converged]
  Term symbol:  20 (-) A                                    R^2 =  2.52892e-05
  Excitation energy:                                             332.464300 eV
  Excited state 20 (A)                                         [not converged]
  Term symbol:  21 (-) A                                    R^2 =  3.39444e-03
  Excitation energy:                                             332.585983 eV

                    Orbital Energies (a.u.)
 --------------------------------------------------------------

 Alpha MOs
 -- Occupied --
-26.747 -26.744 -26.744 -26.619 -11.941  -2.192  -2.081  -2.077
 -1.869  -1.327  -1.255  -1.254  -1.205  -1.078  -1.078  -1.051
 -1.051  -1.034  -1.022  -0.930  -0.927

 Beta MOs
 -- Occupied --
-26.747 -26.744 -26.744 -26.570 -11.941  -2.192  -2.081  -2.078
 -1.676  -1.327  -1.255  -1.254  -1.205  -1.078  -1.078  -1.051
 -1.049  -1.022  -0.877  -0.875

          Ground-State Mulliken Net Atomic Charges

     Atom                 Charge (a.u.)    Spin (a.u.)
  --------------------------------------------------------
      1 C                     1.173562      -0.005184
      2 F                    -0.070659       0.000147
      3 F                    -0.070436       0.000142
      4 F                     0.028670       1.004844
      5 F                    -0.061137       0.000051
  --------------------------------------------------------
  Sum of atomic charges =     1.000000

                    Cartesian Multipole Moments
 -----------------------------------------------------------------
    Charge (ESU x 10^10)
                 4.8032
    Dipole Moment (Debye)
         X      -2.5956      Y      13.4077      Z      -0.8536
       Tot      13.6833
    Quadrupole Moments (Debye-Ang)
        XX     -18.8598     XY      -6.9715     YY      18.0844
        XZ       0.0135     YZ      -2.8372     ZZ     -20.5469

 Total job time:  1334.68s(wall), 1278.42s(cpu)
        *  Thank you very much for using Q-Chem.  Have a nice day.  *
