 Q-Chem 4.3, Q-Chem, Inc., Pleasanton, CA (2015)
 Q-Chem 4.3.0 for Intel X86 Linux

User input:
--------------------------------------------------------------
$comment
XAS calculation for valence excited states for CF4+ using cvs-adc(2) + 6-31G* basis set
job 1 - determination of HF orbitals
$end

$molecule
1 2
6  -0.535308  2.801184  -0.177956
9  0.618032  2.493968  -0.062806
9  -1.071806  3.414405  0.701591
9  -1.391091  0.465537  0.728608
9  -1.056093  2.739592  -1.254991
$end

$comment
cvs-adc(2) calculation
$end

$rem
mem_total 3000
mem_static 1500
sym_ignore true
method cvs-adc(2)
basis 6-31G*
ee_singlets 20
cc_rest_occ 5                  !only excitations from the lowest N orbitals
unrestricted  true
max_scf_cycles 200
SCF_ALGORITHM = DIIS_GDM
SCF_CONVERGENCE = 7
THRESH = 10
$end
--------------------------------------------------------------

             Standard Nuclear Orientation (Angstroms)
    I     Atom           X                Y                Z
 ----------------------------------------------------------------
    1      C      -0.5353080000     2.8011840000    -0.1779560000
    2      F       0.6180320000     2.4939680000    -0.0628060000
    3      F      -1.0718060000     3.4144050000     0.7015910000
    4      F      -1.3910910000     0.4655370000     0.7286080000
    5      F      -1.0560930000     2.7395920000    -1.2549910000
 ----------------------------------------------------------------

   77    -435.1759584701      3.10E-08 Convergence criterion met
 Total energy in the final basis set = -435.1759584701
  Term symbol:  2 (-) A                                     R^2 =  2.93536e-14
  Excitation energy:                                             294.503971 eV
  Term symbol:  3 (-) A                                     R^2 =  3.43042e-14
  Excitation energy:                                             296.450087 eV
  Term symbol:  4 (-) A                                     R^2 =  9.17835e-14
  Excitation energy:                                             303.825943 eV
  Term symbol:  5 (-) A                                     R^2 =  2.08403e-14
  Excitation energy:                                             304.595981 eV
  Term symbol:  6 (-) A                                     R^2 =  3.97110e-14
  Excitation energy:                                             305.282075 eV
  Term symbol:  7 (-) A                                     R^2 =  2.08344e-14
  Excitation energy:                                             306.337178 eV
  Term symbol:  8 (-) A                                     R^2 =  2.79256e-14
  Excitation energy:                                             306.360787 eV
  Term symbol:  9 (-) A                                     R^2 =  2.46797e-14
  Excitation energy:                                             308.529973 eV
  Term symbol:  10 (-) A                                    R^2 =  4.03339e-14
  Excitation energy:                                             308.552350 eV
  Excited state 10 (A)                                             [converged]
  Term symbol:  11 (-) A                                    R^2 =  1.32657e-13
  Excitation energy:                                             313.683131 eV
  Excited state 11 (A)                                             [converged]
  Term symbol:  12 (-) A                                    R^2 =  1.11243e-13
  Excitation energy:                                             314.658265 eV
  Excited state 12 (A)                                             [converged]
  Term symbol:  13 (-) A                                    R^2 =  1.23655e-13
  Excitation energy:                                             314.861403 eV
  Excited state 13 (A)                                             [converged]
  Term symbol:  14 (-) A                                    R^2 =  8.54252e-14
  Excitation energy:                                             314.881435 eV
  Excited state 14 (A)                                             [converged]
  Term symbol:  15 (-) A                                    R^2 =  1.58889e-13
  Excitation energy:                                             314.933764 eV
  Excited state 15 (A)                                             [converged]
  Term symbol:  16 (-) A                                    R^2 =  1.58877e-13
  Excitation energy:                                             315.276433 eV
  Excited state 16 (A)                                             [converged]
  Term symbol:  17 (-) A                                    R^2 =  2.70561e-13
  Excitation energy:                                             315.293241 eV
  Excited state 17 (A)                                             [converged]
  Term symbol:  18 (-) A                                    R^2 =  6.11713e-13
  Excitation energy:                                             316.021270 eV
  Excited state 18 (A)                                         [not converged]
  Term symbol:  19 (-) A                                    R^2 =  1.98065e-05
  Excitation energy:                                             332.506694 eV
  Excited state 19 (A)                                             [converged]
  Term symbol:  20 (-) A                                    R^2 =  6.11273e-07
  Excitation energy:                                             332.510631 eV
  Excited state 20 (A)                                         [not converged]
  Term symbol:  21 (-) A                                    R^2 =  1.11998e-03
  Excitation energy:                                             332.695048 eV

                    Orbital Energies (a.u.)
 --------------------------------------------------------------

 Alpha MOs
 -- Occupied --
-26.744 -26.744 -26.744 -26.624 -11.943  -2.187  -2.074  -2.074
 -1.874  -1.326  -1.250  -1.250  -1.200  -1.076  -1.076  -1.049
 -1.047  -1.038  -1.020  -0.935  -0.932

 Beta MOs
 -- Occupied --
-26.744 -26.744 -26.744 -26.576 -11.943  -2.187  -2.074  -2.074
 -1.680  -1.326  -1.250  -1.250  -1.200  -1.076  -1.076  -1.047
 -1.047  -1.020  -0.881  -0.879

          Ground-State Mulliken Net Atomic Charges

     Atom                 Charge (a.u.)    Spin (a.u.)
  --------------------------------------------------------
      1 C                     1.180366      -0.005163
      2 F                    -0.072101      -0.000022
      3 F                    -0.071798      -0.000025
      4 F                     0.032209       1.005270
      5 F                    -0.068676      -0.000060
  --------------------------------------------------------
  Sum of atomic charges =     1.000000

                    Cartesian Multipole Moments
 -----------------------------------------------------------------
    Charge (ESU x 10^10)
                 4.8032
    Dipole Moment (Debye)
         X      -2.7564      Y      12.9659      Z      -0.6760
       Tot      13.2729
    Quadrupole Moments (Debye-Ang)
        XX     -18.6966     XY      -7.1332     YY      15.7294
        XZ      -0.0827     YZ      -2.3221     ZZ     -20.6364

 Total job time:  1409.33s(wall), 1375.59s(cpu)
        *  Thank you very much for using Q-Chem.  Have a nice day.  *
