 Q-Chem 4.3, Q-Chem, Inc., Pleasanton, CA (2015)
 Q-Chem 4.3.0 for Intel X86 Linux

User input:
--------------------------------------------------------------
$comment
XAS calculation for valence excited states for CF4+ using cvs-adc(2) + 6-31G* basis set
job 1 - determination of HF orbitals
$end

$molecule
1 2
6  -0.69766  2.354462  -0.00202
9  0.601728  2.349249  0.000141
9  -1.133237  3.291845  0.785393
9  -1.133738  1.196432  0.424488
9  -1.133164  2.558137  -1.208747
$end

$comment
cvs-adc(2) calculation
$end

$rem
mem_total 3000
mem_static 1500
sym_ignore true
method cvs-adc(2)
basis 6-31G*
ee_singlets 20
cc_rest_occ 5                  !only excitations from the lowest N orbitals
unrestricted  true
max_scf_cycles 200
SCF_ALGORITHM = DIIS_GDM
SCF_CONVERGENCE = 7
THRESH = 10
$end
--------------------------------------------------------------

             Standard Nuclear Orientation (Angstroms)
    I     Atom           X                Y                Z
 ----------------------------------------------------------------
    1      C      -0.6976600000     2.3544620000    -0.0020200000
    2      F       0.6017280000     2.3492490000     0.0001410000
    3      F      -1.1332370000     3.2918450000     0.7853930000
    4      F      -1.1337380000     1.1964320000     0.4244880000
    5      F      -1.1331640000     2.5581370000    -1.2087470000
 ----------------------------------------------------------------

   47    -435.0711322861      6.82E-08 Convergence criterion met
 Total energy in the final basis set = -435.0711322861
  Term symbol:  2 (-) A                                     R^2 =  2.74658e-13
  Excitation energy:                                             290.818582 eV
  Term symbol:  3 (-) A                                     R^2 =  2.44008e-13
  Excitation energy:                                             299.251889 eV
  Term symbol:  4 (-) A                                     R^2 =  9.92068e-14
  Excitation energy:                                             301.891788 eV
  Term symbol:  5 (-) A                                     R^2 =  8.23477e-14
  Excitation energy:                                             302.099358 eV
  Term symbol:  6 (-) A                                     R^2 =  6.84372e-14
  Excitation energy:                                             302.151808 eV
  Term symbol:  7 (-) A                                     R^2 =  1.42926e-13
  Excitation energy:                                             304.152629 eV
  Term symbol:  8 (-) A                                     R^2 =  1.93000e-13
  Excitation energy:                                             304.175071 eV
  Term symbol:  9 (-) A                                     R^2 =  4.89513e-13
  Excitation energy:                                             304.591236 eV
  Term symbol:  10 (-) A                                    R^2 =  1.89155e-13
  Excitation energy:                                             307.123106 eV
  Excited state 10 (A)                                             [converged]
  Term symbol:  11 (-) A                                    R^2 =  1.37301e-12
  Excitation energy:                                             313.363594 eV
  Excited state 11 (A)                                             [converged]
  Term symbol:  12 (-) A                                    R^2 =  3.23391e-13
  Excitation energy:                                             313.942292 eV
  Excited state 12 (A)                                             [converged]
  Term symbol:  13 (-) A                                    R^2 =  9.02973e-13
  Excitation energy:                                             314.332133 eV
  Excited state 13 (A)                                             [converged]
  Term symbol:  14 (-) A                                    R^2 =  9.37769e-13
  Excitation energy:                                             314.587417 eV
  Excited state 14 (A)                                             [converged]
  Term symbol:  15 (-) A                                    R^2 =  5.00676e-13
  Excitation energy:                                             314.958565 eV
  Excited state 15 (A)                                             [converged]
  Term symbol:  16 (-) A                                    R^2 =  4.01954e-13
  Excitation energy:                                             315.044040 eV
  Excited state 16 (A)                                             [converged]
  Term symbol:  17 (-) A                                    R^2 =  4.78706e-13
  Excitation energy:                                             315.691556 eV
  Excited state 17 (A)                                             [converged]
  Term symbol:  18 (-) A                                    R^2 =  2.03167e-12
  Excitation energy:                                             316.196090 eV
  Excited state 18 (A)                                             [converged]
  Term symbol:  19 (-) A                                    R^2 =  5.59480e-08
  Excitation energy:                                             329.138030 eV
  Excited state 19 (A)                                             [converged]
  Term symbol:  20 (-) A                                    R^2 =  3.97441e-09
  Excitation energy:                                             329.721036 eV
  Excited state 20 (A)                                             [converged]
  Term symbol:  21 (-) A                                    R^2 =  7.26240e-07
  Excitation energy:                                             330.002459 eV

                    Orbital Energies (a.u.)
 --------------------------------------------------------------

 Alpha MOs
 -- Occupied --
-27.004 -26.681 -26.659 -26.659 -11.930  -2.315  -2.059  -1.971
 -1.958  -1.440  -1.414  -1.315  -1.229  -1.141  -1.129  -1.036
 -1.010  -1.008  -0.969  -0.964  -0.947

 Beta MOs
 -- Occupied --
-26.952 -26.677 -26.658 -26.658 -11.932  -2.166  -2.026  -1.961
 -1.956  -1.394  -1.269  -1.221  -1.152  -1.120  -1.013  -1.003
 -0.999  -0.968  -0.961  -0.945

          Ground-State Mulliken Net Atomic Charges

     Atom                 Charge (a.u.)    Spin (a.u.)
  --------------------------------------------------------
      1 C                     1.332829      -0.073826
      2 F                    -0.231055       0.012923
      3 F                    -0.231142       0.012642
      4 F                     0.340269       0.981625
      5 F                    -0.210902       0.066635
  --------------------------------------------------------
  Sum of atomic charges =     1.000000

                    Cartesian Multipole Moments
 -----------------------------------------------------------------
    Charge (ESU x 10^10)
                 4.8032
    Dipole Moment (Debye)
         X      -4.6189      Y       8.1073      Z       1.0301
       Tot       9.3874
    Quadrupole Moments (Debye-Ang)
        XX     -17.6572     XY      -7.0771     YY      -6.7811
        XZ      -0.9729     YZ       0.8830     ZZ     -21.2161

 Total job time:  1524.21s(wall), 1468.10s(cpu)
        *  Thank you very much for using Q-Chem.  Have a nice day.  *
