 Q-Chem 4.3, Q-Chem, Inc., Pleasanton, CA (2015)
 Q-Chem 4.3.0 for Intel X86 Linux

User input:
--------------------------------------------------------------
$comment
XAS calculation for valence excited states for CF4+ using cvs-adc(2) + 6-31G* basis set
job 1 - determination of HF orbitals
$end

$molecule
1 2
6  -0.489612  2.918722  -0.218839
9  0.59295  2.429571  -0.038098
9  -1.09525  3.348883  0.725688
9  -1.346098  0.591264  0.677672
9  -1.081423  2.669542  -1.227037
$end

$comment
cvs-adc(2) calculation
$end

$rem
mem_total 3000
mem_static 1500
sym_ignore true
method cvs-adc(2)
basis 6-31G*
ee_singlets 20
cc_rest_occ 5                  !only excitations from the lowest N orbitals
unrestricted  true
max_scf_cycles 200
SCF_ALGORITHM = DIIS_GDM
SCF_CONVERGENCE = 7
THRESH = 10
$end
--------------------------------------------------------------

             Standard Nuclear Orientation (Angstroms)
    I     Atom           X                Y                Z
 ----------------------------------------------------------------
    1      C      -0.4896120000     2.9187220000    -0.2188390000
    2      F       0.5929500000     2.4295710000    -0.0380980000
    3      F      -1.0952500000     3.3488830000     0.7256880000
    4      F      -1.3460980000     0.5912640000     0.6776720000
    5      F      -1.0814230000     2.6695420000    -1.2270370000
 ----------------------------------------------------------------

   80    -435.1707832765      5.74E-08 Convergence criterion met
 Total energy in the final basis set = -435.1707832765
  Term symbol:  2 (-) A                                     R^2 =  2.18961e-13
  Excitation energy:                                             294.326685 eV
  Term symbol:  3 (-) A                                     R^2 =  1.28869e-13
  Excitation energy:                                             296.235989 eV
  Term symbol:  4 (-) A                                     R^2 =  3.41250e-13
  Excitation energy:                                             304.013127 eV
  Term symbol:  5 (-) A                                     R^2 =  1.23912e-13
  Excitation energy:                                             304.629690 eV
  Term symbol:  6 (-) A                                     R^2 =  3.54749e-13
  Excitation energy:                                             305.543356 eV
  Term symbol:  7 (-) A                                     R^2 =  1.80242e-13
  Excitation energy:                                             306.158362 eV
  Term symbol:  8 (-) A                                     R^2 =  2.85870e-13
  Excitation energy:                                             306.339256 eV
  Term symbol:  9 (-) A                                     R^2 =  2.39594e-13
  Excitation energy:                                             308.337382 eV
  Term symbol:  10 (-) A                                    R^2 =  1.99400e-13
  Excitation energy:                                             308.511183 eV
  Excited state 10 (A)                                             [converged]
  Term symbol:  11 (-) A                                    R^2 =  3.28573e-13
  Excitation energy:                                             313.376369 eV
  Excited state 11 (A)                                             [converged]
  Term symbol:  12 (-) A                                    R^2 =  1.57844e-13
  Excitation energy:                                             314.771069 eV
  Excited state 12 (A)                                             [converged]
  Term symbol:  13 (-) A                                    R^2 =  3.69930e-13
  Excitation energy:                                             314.814620 eV
  Excited state 13 (A)                                             [converged]
  Term symbol:  14 (-) A                                    R^2 =  2.17427e-13
  Excitation energy:                                             314.836244 eV
  Excited state 14 (A)                                             [converged]
  Term symbol:  15 (-) A                                    R^2 =  6.16717e-13
  Excitation energy:                                             315.214522 eV
  Excited state 15 (A)                                             [converged]
  Term symbol:  16 (-) A                                    R^2 =  4.61882e-13
  Excitation energy:                                             315.253364 eV
  Excited state 16 (A)                                             [converged]
  Term symbol:  17 (-) A                                    R^2 =  8.48128e-13
  Excitation energy:                                             315.282407 eV
  Excited state 17 (A)                                             [converged]
  Term symbol:  18 (-) A                                    R^2 =  5.76622e-13
  Excitation energy:                                             316.353932 eV
  Excited state 18 (A)                                         [not converged]
  Term symbol:  19 (-) A                                    R^2 =  4.64564e-06
  Excitation energy:                                             332.462578 eV
  Excited state 19 (A)                                         [not converged]
  Term symbol:  20 (-) A                                    R^2 =  1.25176e-04
  Excitation energy:                                             332.528771 eV
  Excited state 20 (A)                                         [not converged]
  Term symbol:  21 (-) A                                    R^2 =  6.42620e-05
  Excitation energy:                                             332.647855 eV

                    Orbital Energies (a.u.)
 --------------------------------------------------------------

 Alpha MOs
 -- Occupied --
-26.746 -26.743 -26.743 -26.614 -11.944  -2.187  -2.076  -2.071
 -1.865  -1.326  -1.250  -1.250  -1.200  -1.076  -1.076  -1.048
 -1.048  -1.029  -1.020  -0.926  -0.923

 Beta MOs
 -- Occupied --
-26.746 -26.743 -26.743 -26.566 -11.944  -2.187  -2.076  -2.071
 -1.673  -1.326  -1.250  -1.250  -1.200  -1.076  -1.076  -1.048
 -1.046  -1.020  -0.873  -0.871

          Ground-State Mulliken Net Atomic Charges

     Atom                 Charge (a.u.)    Spin (a.u.)
  --------------------------------------------------------
      1 C                     1.198682      -0.005207
      2 F                    -0.078088       0.000315
      3 F                    -0.078037       0.000306
      4 F                     0.025094       1.004462
      5 F                    -0.067652       0.000123
  --------------------------------------------------------
  Sum of atomic charges =     1.000000

                    Cartesian Multipole Moments
 -----------------------------------------------------------------
    Charge (ESU x 10^10)
                 4.8032
    Dipole Moment (Debye)
         X      -2.4309      Y      13.8334      Z      -1.0039
       Tot      14.0812
    Quadrupole Moments (Debye-Ang)
        XX     -19.0781     XY      -6.7417     YY      20.4080
        XZ       0.0703     YZ      -3.3191     ZZ     -20.5354

 Total job time:  1388.68s(wall), 1305.77s(cpu)
        *  Thank you very much for using Q-Chem.  Have a nice day.  *
