 Q-Chem 4.3, Q-Chem, Inc., Pleasanton, CA (2015)
 Q-Chem 4.3.0 for Intel X86 Linux

User input:
--------------------------------------------------------------
$comment
XAS calculation for valence excited states for CF4+ using cvs-adc(2) + 6-31G* basis set
job 1 - determination of HF orbitals
$end

$molecule
1 2
6  -0.577089  2.692695  -0.139562
9  0.663125  2.559999  -0.088521
9  -1.054486  3.495873  0.68834
9  -1.446752  0.310051  0.791565
9  -1.036455  2.816102  -1.303232
$end

$comment
cvs-adc(2) calculation
$end

$rem
mem_total 3000
mem_static 1500
sym_ignore true
method cvs-adc(2)
basis 6-31G*
ee_singlets 20
cc_rest_occ 5                  !only excitations from the lowest N orbitals
unrestricted  true
max_scf_cycles 200
SCF_ALGORITHM = DIIS_GDM
SCF_CONVERGENCE = 7
THRESH = 10
$end
--------------------------------------------------------------

             Standard Nuclear Orientation (Angstroms)
    I     Atom           X                Y                Z
 ----------------------------------------------------------------
    1      C      -0.5770890000     2.6926950000    -0.1395620000
    2      F       0.6631250000     2.5599990000    -0.0885210000
    3      F      -1.0544860000     3.4958730000     0.6883400000
    4      F      -1.4467520000     0.3100510000     0.7915650000
    5      F      -1.0364550000     2.8161020000    -1.3032320000
 ----------------------------------------------------------------

   80    -435.1364222014      9.57E-08 Convergence criterion met
 Total energy in the final basis set = -435.1364222014
  Term symbol:  2 (-) A                                     R^2 =  4.00649e-14
  Excitation energy:                                             292.844949 eV
  Term symbol:  3 (-) A                                     R^2 =  4.12818e-14
  Excitation energy:                                             294.785047 eV
  Term symbol:  4 (-) A                                     R^2 =  1.92904e-13
  Excitation energy:                                             303.943481 eV
  Term symbol:  5 (-) A                                     R^2 =  1.20956e-13
  Excitation energy:                                             304.158170 eV
  Term symbol:  6 (-) A                                     R^2 =  1.46776e-13
  Excitation energy:                                             304.376740 eV
  Term symbol:  7 (-) A                                     R^2 =  7.46748e-14
  Excitation energy:                                             305.035815 eV
  Term symbol:  8 (-) A                                     R^2 =  1.26038e-13
  Excitation energy:                                             305.976475 eV
  Term symbol:  9 (-) A                                     R^2 =  9.52302e-14
  Excitation energy:                                             306.216284 eV
  Term symbol:  10 (-) A                                    R^2 =  5.95316e-14
  Excitation energy:                                             306.341811 eV
  Excited state 10 (A)                                             [converged]
  Term symbol:  11 (-) A                                    R^2 =  1.35955e-13
  Excitation energy:                                             314.302842 eV
  Excited state 11 (A)                                             [converged]
  Term symbol:  12 (-) A                                    R^2 =  1.47688e-13
  Excitation energy:                                             314.790747 eV
  Excited state 12 (A)                                             [converged]
  Term symbol:  13 (-) A                                    R^2 =  6.78394e-14
  Excitation energy:                                             314.804065 eV
  Excited state 13 (A)                                             [converged]
  Term symbol:  14 (-) A                                    R^2 =  1.30570e-13
  Excitation energy:                                             314.947736 eV
  Excited state 14 (A)                                             [converged]
  Term symbol:  15 (-) A                                    R^2 =  1.63271e-13
  Excitation energy:                                             315.280275 eV
  Excited state 15 (A)                                             [converged]
  Term symbol:  16 (-) A                                    R^2 =  1.53395e-13
  Excitation energy:                                             315.308639 eV
  Excited state 16 (A)                                             [converged]
  Term symbol:  17 (-) A                                    R^2 =  3.88728e-13
  Excitation energy:                                             315.497599 eV
  Excited state 17 (A)                                             [converged]
  Term symbol:  18 (-) A                                    R^2 =  6.40472e-13
  Excitation energy:                                             315.771763 eV
  Excited state 18 (A)                                         [not converged]
  Term symbol:  19 (-) A                                    R^2 =  2.77081e-04
  Excitation energy:                                             332.566407 eV
  Excited state 19 (A)                                         [not converged]
  Term symbol:  20 (-) A                                    R^2 =  5.39605e-06
  Excitation energy:                                             332.619590 eV
  Excited state 20 (A)                                         [not converged]
  Term symbol:  21 (-) A                                    R^2 =  8.47680e-04
  Excitation energy:                                             332.658621 eV

                    Orbital Energies (a.u.)
 --------------------------------------------------------------

 Alpha MOs
 -- Occupied --
-26.739 -26.739 -26.735 -26.630 -11.963  -2.146  -2.039  -2.033
 -1.878  -1.316  -1.218  -1.217  -1.166  -1.059  -1.058  -1.045
 -1.028  -1.025  -1.009  -0.939  -0.936

 Beta MOs
 -- Occupied --
-26.739 -26.739 -26.735 -26.581 -11.963  -2.146  -2.039  -2.033
 -1.684  -1.316  -1.218  -1.217  -1.166  -1.059  -1.058  -1.028
 -1.025  -1.009  -0.884  -0.884

          Ground-State Mulliken Net Atomic Charges

     Atom                 Charge (a.u.)    Spin (a.u.)
  --------------------------------------------------------
      1 C                     1.271483      -0.004902
      2 F                    -0.099534      -0.000389
      3 F                    -0.099508      -0.000387
      4 F                     0.035588       1.006044
      5 F                    -0.108030      -0.000366
  --------------------------------------------------------
  Sum of atomic charges =     1.000000

                    Cartesian Multipole Moments
 -----------------------------------------------------------------
    Charge (ESU x 10^10)
                 4.8032
    Dipole Moment (Debye)
         X      -3.0507      Y      12.1528      Z      -0.3497
       Tot      12.5347
    Quadrupole Moments (Debye-Ang)
        XX     -18.5387     XY      -7.3113     YY      11.5109
        XZ      -0.3032     YZ      -1.4779     ZZ     -20.9489

 Total job time:  1492.16s(wall), 1452.87s(cpu)
        *  Thank you very much for using Q-Chem.  Have a nice day.  *
