 Q-Chem 4.3, Q-Chem, Inc., Pleasanton, CA (2015)
 Q-Chem 4.3.0 for Intel X86 Linux

User input:
--------------------------------------------------------------
$comment
XAS calculation for valence excited states for CF4+ using cvs-adc(2) + 6-31G* basis set
job 1 - determination of HF orbitals
$end

$molecule
1 2
6  -0.53331  2.81828  -0.193438
9  0.685691  2.609218  -0.109492
9  -1.039054  3.549454  0.670505
9  -1.533206  0.068545  0.88935
9  -1.015653  2.875485  -1.328182
$end

$comment
cvs-adc(2) calculation
$end

$rem
mem_total 3000
mem_static 1500
sym_ignore true
method cvs-adc(2)
basis 6-31G*
ee_singlets 20
cc_rest_occ 5                  !only excitations from the lowest N orbitals
unrestricted  true
max_scf_cycles 200
SCF_ALGORITHM = DIIS_GDM
SCF_CONVERGENCE = 7
THRESH = 10
$end
--------------------------------------------------------------

             Standard Nuclear Orientation (Angstroms)
    I     Atom           X                Y                Z
 ----------------------------------------------------------------
    1      C      -0.5333100000     2.8182800000    -0.1934380000
    2      F       0.6856910000     2.6092180000    -0.1094920000
    3      F      -1.0390540000     3.5494540000     0.6705050000
    4      F      -1.5332060000     0.0685450000     0.8893500000
    5      F      -1.0156530000     2.8754850000    -1.3281820000
 ----------------------------------------------------------------

   96    -435.1545057868      2.90E-08 Convergence criterion met
 Total energy in the final basis set = -435.1545057868
  Term symbol:  2 (-) A                                     R^2 =  6.08988e-14
  Excitation energy:                                             293.443415 eV
  Term symbol:  3 (-) A                                     R^2 =  3.72897e-14
  Excitation energy:                                             295.354606 eV
  Term symbol:  4 (-) A                                     R^2 =  8.73174e-13
  Excitation energy:                                             303.754407 eV
  Term symbol:  5 (-) A                                     R^2 =  4.05492e-14
  Excitation energy:                                             304.701685 eV
  Term symbol:  6 (-) A                                     R^2 =  8.81908e-14
  Excitation energy:                                             304.802267 eV
  Term symbol:  7 (-) A                                     R^2 =  3.21283e-14
  Excitation energy:                                             305.542134 eV
  Term symbol:  8 (-) A                                     R^2 =  4.62685e-14
  Excitation energy:                                             306.668773 eV
  Term symbol:  9 (-) A                                     R^2 =  3.40403e-14
  Excitation energy:                                             306.831848 eV
  Term symbol:  10 (-) A                                    R^2 =  3.49537e-14
  Excitation energy:                                             306.894695 eV
  Excited state 10 (A)                                             [converged]
  Term symbol:  11 (-) A                                    R^2 =  3.37695e-14
  Excitation energy:                                             313.696720 eV
  Excited state 11 (A)                                             [converged]
  Term symbol:  12 (-) A                                    R^2 =  4.15291e-14
  Excitation energy:                                             314.421866 eV
  Excited state 12 (A)                                             [converged]
  Term symbol:  13 (-) A                                    R^2 =  5.78885e-14
  Excitation energy:                                             314.712263 eV
  Excited state 13 (A)                                             [converged]
  Term symbol:  14 (-) A                                    R^2 =  1.05226e-13
  Excitation energy:                                             314.929994 eV
  Excited state 14 (A)                                             [converged]
  Term symbol:  15 (-) A                                    R^2 =  8.06417e-14
  Excitation energy:                                             314.950804 eV
  Excited state 15 (A)                                             [converged]
  Term symbol:  16 (-) A                                    R^2 =  3.80645e-13
  Excitation energy:                                             315.373227 eV
  Excited state 16 (A)                                             [converged]
  Term symbol:  17 (-) A                                    R^2 =  1.70206e-13
  Excitation energy:                                             315.402083 eV
  Excited state 17 (A)                                             [converged]
  Term symbol:  18 (-) A                                    R^2 =  9.27788e-13
  Excitation energy:                                             315.601737 eV
  Excited state 18 (A)                                         [not converged]
  Term symbol:  19 (-) A                                    R^2 =  2.15398e-03
  Excitation energy:                                             332.747634 eV
  Excited state 19 (A)                                         [not converged]
  Term symbol:  20 (-) A                                    R^2 =  8.46932e-03
  Excitation energy:                                             332.785010 eV
  Excited state 20 (A)                                         [not converged]
  Term symbol:  21 (-) A                                    R^2 =  1.29440e-02
  Excitation energy:                                             332.893357 eV

                    Orbital Energies (a.u.)
 --------------------------------------------------------------

 Alpha MOs
 -- Occupied --
-26.747 -26.745 -26.745 -26.587 -11.961  -2.158  -2.053  -2.050
 -1.838  -1.322  -1.231  -1.231  -1.177  -1.067  -1.067  -1.038
 -1.037  -1.018  -1.005  -0.899  -0.897

 Beta MOs
 -- Occupied --
-26.747 -26.745 -26.745 -26.539 -11.961  -2.158  -2.053  -2.050
 -1.645  -1.322  -1.231  -1.231  -1.178  -1.067  -1.067  -1.038
 -1.037  -1.018  -0.846  -0.845

          Ground-State Mulliken Net Atomic Charges

     Atom                 Charge (a.u.)    Spin (a.u.)
  --------------------------------------------------------
      1 C                     1.266840      -0.001777
      2 F                    -0.095233      -0.000039
      3 F                    -0.095257      -0.000039
      4 F                     0.012566       1.001887
      5 F                    -0.088916      -0.000032
  --------------------------------------------------------
  Sum of atomic charges =     1.000000

                    Cartesian Multipole Moments
 -----------------------------------------------------------------
    Charge (ESU x 10^10)
                 4.8032
    Dipole Moment (Debye)
         X      -2.7536      Y      13.0536      Z      -0.7739
       Tot      13.3633
    Quadrupole Moments (Debye-Ang)
        XX     -18.8499     XY      -7.2773     YY      15.8197
        XZ       0.0113     YZ      -2.4940     ZZ     -20.7509

 Total job time:  1369.95s(wall), 1287.59s(cpu)
        *  Thank you very much for using Q-Chem.  Have a nice day.  *
