 Q-Chem 4.3, Q-Chem, Inc., Pleasanton, CA (2015)
 Q-Chem 4.3.0 for Intel X86 Linux

User input:
--------------------------------------------------------------
$comment
XAS calculation for valence excited states for CF4+ using cvs-adc(2) + 6-31G* basis set
job 1 - determination of HF orbitals
$end

$molecule
1 2
6  -0.674363  2.420345  -0.029304
9  0.595903  2.343358  0.002057
9  -1.134376  3.28347  0.785156
9  -1.141473  1.173638  0.434598
9  -1.133181  2.553584  -1.203302
$end

$comment
cvs-adc(2) calculation
$end

$rem
mem_total 3000
mem_static 1500
sym_ignore true
method cvs-adc(2)
basis 6-31G*
ee_singlets 20
cc_rest_occ 5                  !only excitations from the lowest N orbitals
unrestricted  true
max_scf_cycles 200
SCF_ALGORITHM = DIIS_GDM
SCF_CONVERGENCE = 7
THRESH = 10
$end
--------------------------------------------------------------

             Standard Nuclear Orientation (Angstroms)
    I     Atom           X                Y                Z
 ----------------------------------------------------------------
    1      C      -0.6743630000     2.4203450000    -0.0293040000
    2      F       0.5959030000     2.3433580000     0.0020570000
    3      F      -1.1343760000     3.2834700000     0.7851560000
    4      F      -1.1414730000     1.1736380000     0.4345980000
    5      F      -1.1331810000     2.5535840000    -1.2033020000
 ----------------------------------------------------------------

   57    -435.1073522678      1.00E-07 Convergence criterion met
 Total energy in the final basis set = -435.1073522678
  Term symbol:  2 (-) A                                     R^2 =  1.87245e-13
  Excitation energy:                                             292.478941 eV
  Term symbol:  3 (-) A                                     R^2 =  1.71932e-13
  Excitation energy:                                             297.374405 eV
  Term symbol:  4 (-) A                                     R^2 =  4.77624e-13
  Excitation energy:                                             299.958078 eV
  Term symbol:  5 (-) A                                     R^2 =  2.17907e-13
  Excitation energy:                                             303.173707 eV
  Term symbol:  6 (-) A                                     R^2 =  1.38100e-13
  Excitation energy:                                             303.304579 eV
  Term symbol:  7 (-) A                                     R^2 =  6.45514e-13
  Excitation energy:                                             304.877718 eV
  Term symbol:  8 (-) A                                     R^2 =  6.45635e-14
  Excitation energy:                                             305.244599 eV
  Term symbol:  9 (-) A                                     R^2 =  2.49525e-13
  Excitation energy:                                             305.354073 eV
  Term symbol:  10 (-) A                                    R^2 =  3.95945e-13
  Excitation energy:                                             307.265473 eV
  Excited state 10 (A)                                             [converged]
  Term symbol:  11 (-) A                                    R^2 =  2.39968e-13
  Excitation energy:                                             314.327380 eV
  Excited state 11 (A)                                             [converged]
  Term symbol:  12 (-) A                                    R^2 =  7.82806e-14
  Excitation energy:                                             314.642181 eV
  Excited state 12 (A)                                             [converged]
  Term symbol:  13 (-) A                                    R^2 =  1.16741e-13
  Excitation energy:                                             314.853256 eV
  Excited state 13 (A)                                             [converged]
  Term symbol:  14 (-) A                                    R^2 =  5.05907e-13
  Excitation energy:                                             314.898125 eV
  Excited state 14 (A)                                             [converged]
  Term symbol:  15 (-) A                                    R^2 =  4.19967e-13
  Excitation energy:                                             315.113655 eV
  Excited state 15 (A)                                             [converged]
  Term symbol:  16 (-) A                                    R^2 =  3.59732e-12
  Excitation energy:                                             315.248157 eV
  Excited state 16 (A)                                             [converged]
  Term symbol:  17 (-) A                                    R^2 =  4.91210e-13
  Excitation energy:                                             315.342826 eV
  Excited state 17 (A)                                             [converged]
  Term symbol:  18 (-) A                                    R^2 =  2.46509e-13
  Excitation energy:                                             315.745947 eV
  Excited state 18 (A)                                         [not converged]
  Term symbol:  19 (-) A                                    R^2 =  1.28486e-05
  Excitation energy:                                             329.263436 eV
  Excited state 19 (A)                                         [not converged]
  Term symbol:  20 (-) A                                    R^2 =  2.05924e-06
  Excitation energy:                                             329.919673 eV
  Excited state 20 (A)                                         [not converged]
  Term symbol:  21 (-) A                                    R^2 =  1.02568e-05
  Excitation energy:                                             330.156361 eV

                    Orbital Energies (a.u.)
 --------------------------------------------------------------

 Alpha MOs
 -- Occupied --
-26.952 -26.679 -26.679 -26.670 -11.930  -2.248  -2.077  -1.988
 -1.984  -1.386  -1.362  -1.265  -1.235  -1.162  -1.150  -1.040
 -1.021  -1.018  -0.984  -0.980  -0.960

 Beta MOs
 -- Occupied --
-26.899 -26.678 -26.677 -26.670 -11.931  -2.131  -2.007  -1.983
 -1.983  -1.349  -1.226  -1.225  -1.171  -1.135  -1.021  -1.019
 -1.012  -0.984  -0.978  -0.958

          Ground-State Mulliken Net Atomic Charges

     Atom                 Charge (a.u.)    Spin (a.u.)
  --------------------------------------------------------
      1 C                     1.352563      -0.045710
      2 F                    -0.205851       0.021711
      3 F                    -0.205982       0.020133
      4 F                     0.263951       1.006819
      5 F                    -0.204682      -0.002954
  --------------------------------------------------------
  Sum of atomic charges =     1.000000

                    Cartesian Multipole Moments
 -----------------------------------------------------------------
    Charge (ESU x 10^10)
                 4.8032
    Dipole Moment (Debye)
         X      -4.2874      Y       8.7837      Z       0.9463
       Tot       9.8199
    Quadrupole Moments (Debye-Ang)
        XX     -17.5576     XY      -7.1669     YY      -3.6433
        XZ      -1.3801     YZ       1.0177     ZZ     -21.7028

 Total job time:  1356.18s(wall), 1311.98s(cpu)
        *  Thank you very much for using Q-Chem.  Have a nice day.  *
