 Q-Chem 4.3, Q-Chem, Inc., Pleasanton, CA (2015)
 Q-Chem 4.3.0 for Intel X86 Linux

User input:
--------------------------------------------------------------
$comment
XAS calculation for valence excited states for CF4+ using cvs-adc(2) + 6-31G* basis set
job 1 - determination of HF orbitals
$end

$molecule
1 2
6  -0.524014  2.830771  -0.188688
9  0.610084  2.478405  -0.056815
9  -1.07683  3.397191  0.706289
9  -1.379858  0.496919  0.715898
9  -1.061488  2.722297  -1.246191
$end

$comment
cvs-adc(2) calculation
$end

$rem
mem_total 3000
mem_static 1500
sym_ignore true
method cvs-adc(2)
basis 6-31G*
ee_singlets 20
cc_rest_occ 5                  !only excitations from the lowest N orbitals
unrestricted  true
max_scf_cycles 200
SCF_ALGORITHM = DIIS_GDM
SCF_CONVERGENCE = 7
THRESH = 10
$end
--------------------------------------------------------------

             Standard Nuclear Orientation (Angstroms)
    I     Atom           X                Y                Z
 ----------------------------------------------------------------
    1      C      -0.5240140000     2.8307710000    -0.1886880000
    2      F       0.6100840000     2.4784050000    -0.0568150000
    3      F      -1.0768300000     3.3971910000     0.7062890000
    4      F      -1.3798580000     0.4969190000     0.7158980000
    5      F      -1.0614880000     2.7222970000    -1.2461910000
 ----------------------------------------------------------------

   74    -435.1780791894      5.65E-08 Convergence criterion met
 Total energy in the final basis set = -435.1780791894
  Term symbol:  2 (-) A                                     R^2 =  4.28335e-14
  Excitation energy:                                             294.705704 eV
  Term symbol:  3 (-) A                                     R^2 =  1.85369e-14
  Excitation energy:                                             296.649899 eV
  Term symbol:  4 (-) A                                     R^2 =  3.85810e-14
  Excitation energy:                                             303.710887 eV
  Term symbol:  5 (-) A                                     R^2 =  3.35400e-14
  Excitation energy:                                             304.577997 eV
  Term symbol:  6 (-) A                                     R^2 =  2.67828e-14
  Excitation energy:                                             305.117468 eV
  Term symbol:  7 (-) A                                     R^2 =  2.78742e-14
  Excitation energy:                                             306.544958 eV
  Term symbol:  8 (-) A                                     R^2 =  1.38623e-14
  Excitation energy:                                             306.644663 eV
  Term symbol:  9 (-) A                                     R^2 =  2.50030e-14
  Excitation energy:                                             308.757282 eV
  Term symbol:  10 (-) A                                    R^2 =  2.36996e-14
  Excitation energy:                                             308.852772 eV
  Excited state 10 (A)                                             [converged]
  Term symbol:  11 (-) A                                    R^2 =  8.47953e-14
  Excitation energy:                                             313.562021 eV
  Excited state 11 (A)                                             [converged]
  Term symbol:  12 (-) A                                    R^2 =  3.74113e-14
  Excitation energy:                                             314.719654 eV
  Excited state 12 (A)                                             [converged]
  Term symbol:  13 (-) A                                    R^2 =  6.14378e-14
  Excitation energy:                                             314.803750 eV
  Excited state 13 (A)                                             [converged]
  Term symbol:  14 (-) A                                    R^2 =  1.15908e-13
  Excitation energy:                                             314.885290 eV
  Excited state 14 (A)                                             [converged]
  Term symbol:  15 (-) A                                    R^2 =  1.18506e-13
  Excitation energy:                                             314.952619 eV
  Excited state 15 (A)                                             [converged]
  Term symbol:  16 (-) A                                    R^2 =  2.34159e-13
  Excitation energy:                                             315.264847 eV
  Excited state 16 (A)                                             [converged]
  Term symbol:  17 (-) A                                    R^2 =  2.28315e-13
  Excitation energy:                                             315.292913 eV
  Excited state 17 (A)                                             [converged]
  Term symbol:  18 (-) A                                    R^2 =  9.66453e-13
  Excitation energy:                                             316.088680 eV
  Excited state 18 (A)                                         [not converged]
  Term symbol:  19 (-) A                                    R^2 =  4.29828e-04
  Excitation energy:                                             332.437379 eV
  Excited state 19 (A)                                         [not converged]
  Term symbol:  20 (-) A                                    R^2 =  2.64896e-04
  Excitation energy:                                             332.473151 eV
  Excited state 20 (A)                                         [not converged]
  Term symbol:  21 (-) A                                    R^2 =  6.70887e-03
  Excitation energy:                                             332.627902 eV

                    Orbital Energies (a.u.)
 --------------------------------------------------------------

 Alpha MOs
 -- Occupied --
-26.746 -26.744 -26.744 -26.622 -11.941  -2.191  -2.079  -2.077
 -1.872  -1.327  -1.254  -1.253  -1.204  -1.077  -1.077  -1.050
 -1.050  -1.036  -1.021  -0.933  -0.930

 Beta MOs
 -- Occupied --
-26.746 -26.744 -26.744 -26.573 -11.941  -2.191  -2.079  -2.077
 -1.678  -1.327  -1.254  -1.253  -1.204  -1.077  -1.077  -1.050
 -1.049  -1.021  -0.879  -0.877

          Ground-State Mulliken Net Atomic Charges

     Atom                 Charge (a.u.)    Spin (a.u.)
  --------------------------------------------------------
      1 C                     1.172968      -0.005172
      2 F                    -0.070220       0.000063
      3 F                    -0.069940       0.000059
      4 F                     0.030479       1.005049
      5 F                    -0.063287       0.000000
  --------------------------------------------------------
  Sum of atomic charges =     1.000000

                    Cartesian Multipole Moments
 -----------------------------------------------------------------
    Charge (ESU x 10^10)
                 4.8032
    Dipole Moment (Debye)
         X      -2.6773      Y      13.1859      Z      -0.7664
       Tot      13.4767
    Quadrupole Moments (Debye-Ang)
        XX     -18.7700     XY      -7.0614     YY      16.8947
        XZ      -0.0307     YZ      -2.5783     ZZ     -20.5829

 Total job time:  1453.58s(wall), 1403.56s(cpu)
        *  Thank you very much for using Q-Chem.  Have a nice day.  *
