 Q-Chem 4.3, Q-Chem, Inc., Pleasanton, CA (2015)
 Q-Chem 4.3.0 for Intel X86 Linux

User input:
--------------------------------------------------------------
$comment
XAS calculation for valence excited states for CF4+ using cvs-adc(2) + 6-31G* basis set
job 1 - determination of HF orbitals
$end

$molecule
1 2
6  -0.632014  2.537279  -0.075606
9  0.586578  2.33286  0.005223
9  -1.136914  3.269471  0.785192
9  -1.155644  1.131739  0.453198
9  -1.133895  2.546121  -1.195859
$end

$comment
cvs-adc(2) calculation
$end

$rem
mem_total 3000
mem_static 1500
sym_ignore true
method cvs-adc(2)
basis 6-31G*
ee_singlets 20
cc_rest_occ 5                  !only excitations from the lowest N orbitals
unrestricted  true
max_scf_cycles 200
SCF_ALGORITHM = DIIS_GDM
SCF_CONVERGENCE = 6
THRESH = 10
$end
--------------------------------------------------------------

             Standard Nuclear Orientation (Angstroms)
    I     Atom           X                Y                Z
 ----------------------------------------------------------------
    1      C      -0.6320140000     2.5372790000    -0.0756060000
    2      F       0.5865780000     2.3328600000     0.0052230000
    3      F      -1.1369140000     3.2694710000     0.7851920000
    4      F      -1.1556440000     1.1317390000     0.4531980000
    5      F      -1.1338950000     2.5461210000    -1.1958590000
 ----------------------------------------------------------------

   47    -435.1401739021      5.62E-07 Convergence criterion met
 Total energy in the final basis set = -435.1401739021
  Term symbol:  2 (-) A                                     R^2 =  6.25099e-13
  Excitation energy:                                             295.744271 eV
  Term symbol:  3 (-) A                                     R^2 =  1.27088e-13
  Excitation energy:                                             295.769548 eV
  Term symbol:  4 (-) A                                     R^2 =  7.38863e-13
  Excitation energy:                                             298.082502 eV
  Term symbol:  5 (-) A                                     R^2 =  1.11432e-13
  Excitation energy:                                             304.570530 eV
  Term symbol:  6 (-) A                                     R^2 =  1.42724e-13
  Excitation energy:                                             304.818115 eV
  Term symbol:  7 (-) A                                     R^2 =  4.51729e-14
  Excitation energy:                                             305.125731 eV
  Term symbol:  8 (-) A                                     R^2 =  2.13351e-13
  Excitation energy:                                             306.687428 eV
  Term symbol:  9 (-) A                                     R^2 =  1.11703e-13
  Excitation energy:                                             306.966562 eV
  Term symbol:  10 (-) A                                    R^2 =  3.15161e-14
  Excitation energy:                                             307.248825 eV
  Excited state 10 (A)                                             [converged]
  Term symbol:  11 (-) A                                    R^2 =  7.27589e-14
  Excitation energy:                                             314.162810 eV
  Excited state 11 (A)                                             [converged]
  Term symbol:  12 (-) A                                    R^2 =  4.87731e-14
  Excitation energy:                                             315.079692 eV
  Excited state 12 (A)                                             [converged]
  Term symbol:  13 (-) A                                    R^2 =  6.99946e-14
  Excitation energy:                                             315.242391 eV
  Excited state 13 (A)                                             [converged]
  Term symbol:  14 (-) A                                    R^2 =  3.34963e-14
  Excitation energy:                                             315.278695 eV
  Excited state 14 (A)                                             [converged]
  Term symbol:  15 (-) A                                    R^2 =  8.78231e-14
  Excitation energy:                                             315.611475 eV
  Excited state 15 (A)                                             [converged]
  Term symbol:  16 (-) A                                    R^2 =  6.69841e-14
  Excitation energy:                                             315.689834 eV
  Excited state 16 (A)                                             [converged]
  Term symbol:  17 (-) A                                    R^2 =  1.56737e-13
  Excitation energy:                                             316.184449 eV
  Excited state 17 (A)                                             [converged]
  Term symbol:  18 (-) A                                    R^2 =  6.80548e-13
  Excitation energy:                                             316.645454 eV
  Excited state 18 (A)                                             [converged]
  Term symbol:  19 (-) A                                    R^2 =  9.19795e-08
  Excitation energy:                                             329.911064 eV
  Excited state 19 (A)                                             [converged]
  Term symbol:  20 (-) A                                    R^2 =  4.25222e-08
  Excitation energy:                                             330.611579 eV
  Excited state 20 (A)                                             [converged]
  Term symbol:  21 (-) A                                    R^2 =  7.18814e-07
  Excitation energy:                                             330.800659 eV

                    Orbital Energies (a.u.)
 --------------------------------------------------------------

 Alpha MOs
 -- Occupied --
-26.846 -26.700 -26.699 -26.699 -11.933  -2.164  -2.080  -2.025
 -2.022  -1.323  -1.268  -1.232  -1.214  -1.194  -1.143  -1.044
 -1.039  -1.039  -1.011  -1.007  -0.984

 Beta MOs
 -- Occupied --
-26.795 -26.699 -26.699 -26.699 -11.934  -2.141  -2.026  -2.021
 -1.912  -1.311  -1.213  -1.210  -1.204  -1.099  -1.040  -1.037
 -1.014  -1.011  -1.001  -0.983

          Ground-State Mulliken Net Atomic Charges

     Atom                 Charge (a.u.)    Spin (a.u.)
  --------------------------------------------------------
      1 C                     1.342117      -0.022543
      2 F                    -0.170730       0.005754
      3 F                    -0.169974       0.005143
      4 F                     0.153200       1.015823
      5 F                    -0.154613      -0.004177
  --------------------------------------------------------
  Sum of atomic charges =     1.000000

                    Cartesian Multipole Moments
 -----------------------------------------------------------------
    Charge (ESU x 10^10)
                 4.8032
    Dipole Moment (Debye)
         X      -3.7939      Y      10.1984      Z       0.3510
       Tot      10.8869
    Quadrupole Moments (Debye-Ang)
        XX     -17.9431     XY      -7.3473     YY       2.5715
        XZ      -0.8380     YZ      -0.0989     ZZ     -21.3193

 Total job time:  1312.47s(wall), 1294.73s(cpu)
        *  Thank you very much for using Q-Chem.  Have a nice day.  *
