 Q-Chem 4.3, Q-Chem, Inc., Pleasanton, CA (2015)
 Q-Chem 4.3.0 for Intel X86 Linux

User input:
--------------------------------------------------------------
$comment
XAS calculation for valence excited states for CF4+ using cvs-adc(2) + 6-31G* basis set
job 1 - determination of HF orbitals
$end

$molecule
1 2
6  -0.463224  3.001417  -0.258557
9  0.67312  2.61251  -0.112688
9  -1.03447  3.543629  0.65954
9  -1.575484  -0.049566  0.937179
9  -1.009655  2.880454  -1.320719
$end

$comment
cvs-adc(2) calculation
$end

$rem
mem_total 3000
mem_static 1500
sym_ignore true
method cvs-adc(2)
basis 6-31G*
ee_singlets 20
cc_rest_occ 5                  !only excitations from the lowest N orbitals
unrestricted  true
max_scf_cycles 200
SCF_ALGORITHM = DIIS_GDM
SCF_CONVERGENCE = 7
THRESH = 10
$end
--------------------------------------------------------------

             Standard Nuclear Orientation (Angstroms)
    I     Atom           X                Y                Z
 ----------------------------------------------------------------
    1      C      -0.4632240000     3.0014170000    -0.2585570000
    2      F       0.6731200000     2.6125100000    -0.1126880000
    3      F      -1.0344700000     3.5436290000     0.6595400000
    4      F      -1.5754840000    -0.0495660000     0.9371790000
    5      F      -1.0096550000     2.8804540000    -1.3207190000
 ----------------------------------------------------------------

  124    -435.1765651012      9.85E-08 Convergence criterion met
 Total energy in the final basis set = -435.1765651012
  Term symbol:  2 (-) A                                     R^2 =  3.47289e-14
  Excitation energy:                                             294.592446 eV
  Term symbol:  3 (-) A                                     R^2 =  6.50081e-14
  Excitation energy:                                             296.512593 eV
  Term symbol:  4 (-) A                                     R^2 =  3.02835e-14
  Excitation energy:                                             303.179450 eV
  Term symbol:  5 (-) A                                     R^2 =  2.12962e-14
  Excitation energy:                                             304.632739 eV
  Term symbol:  6 (-) A                                     R^2 =  2.61473e-14
  Excitation energy:                                             306.038999 eV
  Term symbol:  7 (-) A                                     R^2 =  2.67990e-14
  Excitation energy:                                             306.265559 eV
  Term symbol:  8 (-) A                                     R^2 =  1.93411e-14
  Excitation energy:                                             307.416179 eV
  Term symbol:  9 (-) A                                     R^2 =  2.07396e-14
  Excitation energy:                                             308.248708 eV
  Term symbol:  10 (-) A                                    R^2 =  1.96203e-14
  Excitation energy:                                             308.462578 eV
  Excited state 10 (A)                                             [converged]
  Term symbol:  11 (-) A                                    R^2 =  3.48489e-14
  Excitation energy:                                             313.606742 eV
  Excited state 11 (A)                                             [converged]
  Term symbol:  12 (-) A                                    R^2 =  4.93178e-14
  Excitation energy:                                             313.692393 eV
  Excited state 12 (A)                                             [converged]
  Term symbol:  13 (-) A                                    R^2 =  3.77009e-14
  Excitation energy:                                             314.293112 eV
  Excited state 13 (A)                                             [converged]
  Term symbol:  14 (-) A                                    R^2 =  7.68919e-14
  Excitation energy:                                             315.004974 eV
  Excited state 14 (A)                                             [converged]
  Term symbol:  15 (-) A                                    R^2 =  9.66868e-14
  Excitation energy:                                             315.030684 eV
  Excited state 15 (A)                                             [converged]
  Term symbol:  16 (-) A                                    R^2 =  1.49921e-13
  Excitation energy:                                             315.370478 eV
  Excited state 16 (A)                                             [converged]
  Term symbol:  17 (-) A                                    R^2 =  6.47105e-13
  Excitation energy:                                             315.411886 eV
  Excited state 17 (A)                                             [converged]
  Term symbol:  18 (-) A                                    R^2 =  6.67335e-13
  Excitation energy:                                             315.522911 eV
  Excited state 18 (A)                                         [not converged]
  Term symbol:  19 (-) A                                    R^2 =  2.35559e-05
  Excitation energy:                                             332.563442 eV
  Excited state 19 (A)                                         [not converged]
  Term symbol:  20 (-) A                                    R^2 =  8.63415e-04
  Excitation energy:                                             332.672617 eV
  Excited state 20 (A)                                         [not converged]
  Term symbol:  21 (-) A                                    R^2 =  2.88400e-04
  Excitation energy:                                             332.753567 eV

                    Orbital Energies (a.u.)
 --------------------------------------------------------------

 Alpha MOs
 -- Occupied --
-26.753 -26.749 -26.749 -26.560 -11.950  -2.184  -2.078  -2.072
 -1.812  -1.329  -1.252  -1.251  -1.199  -1.078  -1.078  -1.053
 -1.050  -1.026  -0.980  -0.874  -0.872

 Beta MOs
 -- Occupied --
-26.753 -26.749 -26.749 -26.512 -11.950  -2.184  -2.078  -2.072
 -1.620  -1.329  -1.252  -1.251  -1.199  -1.078  -1.078  -1.053
 -1.050  -1.026  -0.822  -0.820

          Ground-State Mulliken Net Atomic Charges

     Atom                 Charge (a.u.)    Spin (a.u.)
  --------------------------------------------------------
      1 C                     1.214800      -0.000709
      2 F                    -0.077278       0.000029
      3 F                    -0.076970       0.000028
      4 F                     0.004646       1.000627
      5 F                    -0.065198       0.000025
  --------------------------------------------------------
  Sum of atomic charges =     1.000000

                    Cartesian Multipole Moments
 -----------------------------------------------------------------
    Charge (ESU x 10^10)
                 4.8032
    Dipole Moment (Debye)
         X      -2.2999      Y      14.2606      Z      -1.2187
       Tot      14.4962
    Quadrupole Moments (Debye-Ang)
        XX     -19.2189     XY      -6.7511     YY      22.4826
        XZ       0.2080     YZ      -3.8634     ZZ     -20.4463

 Total job time:  1349.34s(wall), 1277.68s(cpu)
        *  Thank you very much for using Q-Chem.  Have a nice day.  *
