 Q-Chem 4.3, Q-Chem, Inc., Pleasanton, CA (2015)
 Q-Chem 4.3.0 for Intel X86 Linux

User input:
--------------------------------------------------------------
$comment
XAS calculation for valence excited states for CF4+ using cvs-adc(2) + 6-31G* basis set
job 1 - determination of HF orbitals
$end

$molecule
1 2
6  -0.575182  2.702896  -0.147477
9  0.685498  2.593648  -0.102178
9  -1.045819  3.537235  0.680833
9  -1.490377  0.188189  0.840905
9  -1.025075  2.856509  -1.326409
$end

$comment
cvs-adc(2) calculation
$end

$rem
mem_total 3000
mem_static 1500
sym_ignore true
method cvs-adc(2)
basis 6-31G*
ee_singlets 20
cc_rest_occ 5                  !only excitations from the lowest N orbitals
unrestricted  true
max_scf_cycles 200
SCF_ALGORITHM = DIIS_GDM
SCF_CONVERGENCE = 7
THRESH = 10
$end
--------------------------------------------------------------

             Standard Nuclear Orientation (Angstroms)
    I     Atom           X                Y                Z
 ----------------------------------------------------------------
    1      C      -0.5751820000     2.7028960000    -0.1474770000
    2      F       0.6854980000     2.5936480000    -0.1021780000
    3      F      -1.0458190000     3.5372350000     0.6808330000
    4      F      -1.4903770000     0.1881890000     0.8409050000
    5      F      -1.0250750000     2.8565090000    -1.3264090000
 ----------------------------------------------------------------

   91    -435.1223671495      5.68E-08 Convergence criterion met
 Total energy in the final basis set = -435.1223671495
  Term symbol:  2 (-) A                                     R^2 =  4.94282e-09
  Excitation energy:                                             292.529147 eV
  Term symbol:  3 (-) A                                     R^2 =  1.17777e-09
  Excitation energy:                                             294.454284 eV
  Term symbol:  4 (-) A                                     R^2 =  6.66044e-11
  Excitation energy:                                             303.437989 eV
  Term symbol:  5 (-) A                                     R^2 =  2.63936e-12
  Excitation energy:                                             303.561442 eV
  Term symbol:  6 (-) A                                     R^2 =  2.71518e-10
  Excitation energy:                                             304.142450 eV
  Term symbol:  7 (-) A                                     R^2 =  6.49719e-11
  Excitation energy:                                             305.435697 eV
  Term symbol:  8 (-) A                                     R^2 =  3.76905e-11
  Excitation energy:                                             305.521049 eV
  Term symbol:  9 (-) A                                     R^2 =  3.15710e-11
  Excitation energy:                                             305.856048 eV
  Term symbol:  10 (-) A                                    R^2 =  1.71154e-10
  Excitation energy:                                             306.205326 eV
  Excited state 10 (A)                                             [converged]
  Term symbol:  11 (-) A                                    R^2 =  8.39395e-10
  Excitation energy:                                             314.079908 eV
  Excited state 11 (A)                                             [converged]
  Term symbol:  12 (-) A                                    R^2 =  8.17704e-11
  Excitation energy:                                             314.823279 eV
  Excited state 12 (A)                                             [converged]
  Term symbol:  13 (-) A                                    R^2 =  4.34753e-11
  Excitation energy:                                             314.830430 eV
  Excited state 13 (A)                                             [converged]
  Term symbol:  14 (-) A                                    R^2 =  1.22597e-11
  Excitation energy:                                             315.153230 eV
  Excited state 14 (A)                                             [converged]
  Term symbol:  15 (-) A                                    R^2 =  1.54920e-10
  Excitation energy:                                             315.230164 eV
  Excited state 15 (A)                                             [converged]
  Term symbol:  16 (-) A                                    R^2 =  4.86264e-12
  Excitation energy:                                             315.339633 eV
  Excited state 16 (A)                                             [converged]
  Term symbol:  17 (-) A                                    R^2 =  1.61595e-10
  Excitation energy:                                             315.356992 eV
  Excited state 17 (A)                                             [converged]
  Term symbol:  18 (-) A                                    R^2 =  1.72905e-11
  Excitation energy:                                             315.896631 eV
  Excited state 18 (A)                                         [not converged]
  Term symbol:  19 (-) A                                    R^2 =  1.96295e-03
  Excitation energy:                                             332.469936 eV
  Excited state 19 (A)                                         [not converged]
  Term symbol:  20 (-) A                                    R^2 =  1.99986e-05
  Excitation energy:                                             332.499450 eV
  Excited state 20 (A)                                         [not converged]
  Term symbol:  21 (-) A                                    R^2 =  2.71618e-03
  Excitation energy:                                             332.540705 eV

                    Orbital Energies (a.u.)
 --------------------------------------------------------------

 Alpha MOs
 -- Occupied --
-26.739 -26.739 -26.737 -26.615 -11.970  -2.135  -2.029  -2.026
 -1.864  -1.314  -1.210  -1.209  -1.157  -1.055  -1.054  -1.031
 -1.024  -1.022  -1.009  -0.925  -0.922

 Beta MOs
 -- Occupied --
-26.739 -26.739 -26.737 -26.566 -11.970  -2.135  -2.029  -2.026
 -1.670  -1.314  -1.210  -1.209  -1.157  -1.055  -1.054  -1.024
 -1.023  -1.009  -0.870  -0.870

          Ground-State Mulliken Net Atomic Charges

     Atom                 Charge (a.u.)    Spin (a.u.)
  --------------------------------------------------------
      1 C                     1.303299      -0.003558
      2 F                    -0.108272      -0.000290
      3 F                    -0.108411      -0.000288
      4 F                     0.026138       1.004395
      5 F                    -0.112755      -0.000259
  --------------------------------------------------------
  Sum of atomic charges =     1.000000

                    Cartesian Multipole Moments
 -----------------------------------------------------------------
    Charge (ESU x 10^10)
                 4.8032
    Dipole Moment (Debye)
         X      -3.0330      Y      12.2444      Z      -0.4211
       Tot      12.6214
    Quadrupole Moments (Debye-Ang)
        XX     -18.6173     XY      -7.3698     YY      11.8148
        XZ      -0.2385     YZ      -1.6209     ZZ     -20.9799

 Total job time:  1462.00s(wall), 1411.53s(cpu)
        *  Thank you very much for using Q-Chem.  Have a nice day.  *
