 Q-Chem 4.3, Q-Chem, Inc., Pleasanton, CA (2015)
 Q-Chem 4.3.0 for Intel X86 Linux

User input:
--------------------------------------------------------------
$comment
XAS calculation for valence excited states for CF4+ using cvs-adc(2) + 6-31G* basis set
job 1 - determination of HF orbitals
$end

$molecule
1 2
6  -0.562792  2.720163  -0.142096
9  0.578256  2.318472  0.008846
9  -1.142381  3.253961  0.787486
9  -1.182139  1.05401  0.48723
9  -1.137334  2.538233  -1.193809
$end

$comment
cvs-adc(2) calculation
$end

$rem
mem_total 3000
mem_static 1500
sym_ignore true
method cvs-adc(2)
basis 6-31G*
ee_singlets 20
cc_rest_occ 5                  !only excitations from the lowest N orbitals
unrestricted  true
max_scf_cycles 200
SCF_ALGORITHM = DIIS_GDM
SCF_CONVERGENCE = 7
THRESH = 10
$end
--------------------------------------------------------------

             Standard Nuclear Orientation (Angstroms)
    I     Atom           X                Y                Z
 ----------------------------------------------------------------
    1      C      -0.5627920000     2.7201630000    -0.1420960000
    2      F       0.5782560000     2.3184720000     0.0088460000
    3      F      -1.1423810000     3.2539610000     0.7874860000
    4      F      -1.1821390000     1.0540100000     0.4872300000
    5      F      -1.1373340000     2.5382330000    -1.1938090000
 ----------------------------------------------------------------

   50    -435.1550397737      9.31E-08 Convergence criterion met
 Total energy in the final basis set = -435.1550397737
  Term symbol:  2 (-) A                                     R^2 =  2.48831e-14
  Excitation energy:                                             294.704533 eV
  Term symbol:  3 (-) A                                     R^2 =  1.65528e-14
  Excitation energy:                                             296.717866 eV
  Term symbol:  4 (-) A                                     R^2 =  6.92419e-14
  Excitation energy:                                             300.359062 eV
  Term symbol:  5 (-) A                                     R^2 =  6.02568e-14
  Excitation energy:                                             303.739048 eV
  Term symbol:  6 (-) A                                     R^2 =  8.14329e-14
  Excitation energy:                                             305.640713 eV
  Term symbol:  7 (-) A                                     R^2 =  7.48142e-14
  Excitation energy:                                             305.798275 eV
  Term symbol:  8 (-) A                                     R^2 =  5.47898e-14
  Excitation energy:                                             305.996791 eV
  Term symbol:  9 (-) A                                     R^2 =  3.85722e-14
  Excitation energy:                                             308.004541 eV
  Term symbol:  10 (-) A                                    R^2 =  2.07582e-14
  Excitation energy:                                             308.195042 eV
  Excited state 10 (A)                                             [converged]
  Term symbol:  11 (-) A                                    R^2 =  1.70633e-13
  Excitation energy:                                             313.529984 eV
  Excited state 11 (A)                                             [converged]
  Term symbol:  12 (-) A                                    R^2 =  5.19492e-14
  Excitation energy:                                             314.923815 eV
  Excited state 12 (A)                                             [converged]
  Term symbol:  13 (-) A                                    R^2 =  1.58971e-13
  Excitation energy:                                             315.277108 eV
  Excited state 13 (A)                                             [converged]
  Term symbol:  14 (-) A                                    R^2 =  1.25705e-13
  Excitation energy:                                             315.368156 eV
  Excited state 14 (A)                                             [converged]
  Term symbol:  15 (-) A                                    R^2 =  9.89286e-14
  Excitation energy:                                             315.705120 eV
  Excited state 15 (A)                                             [converged]
  Term symbol:  16 (-) A                                    R^2 =  1.16038e-13
  Excitation energy:                                             315.746735 eV
  Excited state 16 (A)                                             [converged]
  Term symbol:  17 (-) A                                    R^2 =  7.50081e-13
  Excitation energy:                                             318.184606 eV
  Excited state 17 (A)                                             [converged]
  Term symbol:  18 (-) A                                    R^2 =  1.25298e-12
  Excitation energy:                                             318.769779 eV
  Excited state 18 (A)                                             [converged]
  Term symbol:  19 (-) A                                    R^2 =  5.13625e-08
  Excitation energy:                                             331.508494 eV
  Excited state 19 (A)                                         [not converged]
  Term symbol:  20 (-) A                                    R^2 =  1.02814e-06
  Excitation energy:                                             331.769605 eV
  Excited state 20 (A)                                         [not converged]
  Term symbol:  21 (-) A                                    R^2 =  5.63493e-04
  Excitation energy:                                             332.009346 eV

                    Orbital Energies (a.u.)
 --------------------------------------------------------------

 Alpha MOs
 -- Occupied --
-26.730 -26.729 -26.729 -26.711 -11.944  -2.166  -2.057  -2.055
 -1.972  -1.317  -1.233  -1.233  -1.203  -1.139  -1.064  -1.060
 -1.060  -1.032  -1.010  -1.002  -0.999

 Beta MOs
 -- Occupied --
-26.730 -26.729 -26.729 -26.662 -11.944  -2.164  -2.058  -2.054
 -1.782  -1.316  -1.233  -1.233  -1.195  -1.061  -1.060  -1.052
 -1.042  -1.010  -0.957  -0.952

          Ground-State Mulliken Net Atomic Charges

     Atom                 Charge (a.u.)    Spin (a.u.)
  --------------------------------------------------------
      1 C                     1.316530      -0.008431
      2 F                    -0.129224       0.001788
      3 F                    -0.128334       0.001478
      4 F                     0.056709       1.007503
      5 F                    -0.115681      -0.002337
  --------------------------------------------------------
  Sum of atomic charges =     1.000000

                    Cartesian Multipole Moments
 -----------------------------------------------------------------
    Charge (ESU x 10^10)
                 4.8032
    Dipole Moment (Debye)
         X      -3.0005      Y      12.3061      Z      -0.4231
       Tot      12.6737
    Quadrupole Moments (Debye-Ang)
        XX     -18.6323     XY      -7.2495     YY      12.2692
        XZ      -0.2123     YZ      -1.6686     ZZ     -20.8995

 Total job time:  1574.80s(wall), 1501.25s(cpu)
        *  Thank you very much for using Q-Chem.  Have a nice day.  *
