 Q-Chem 4.3, Q-Chem, Inc., Pleasanton, CA (2015)
 Q-Chem 4.3.0 for Intel X86 Linux

User input:
--------------------------------------------------------------
$comment
XAS calculation for valence excited states for CF4+ using cvs-adc(2) + 6-31G* basis set
job 1 - determination of HF orbitals
$end

$molecule
1 2
6  -0.571746  2.706  -0.14378
9  0.654621  2.548701  -0.084069
9  -1.057152  3.481331  0.690166
9  -1.435709  0.340898  0.779076
9  -1.039704  2.802691  -1.294356
$end

$comment
cvs-adc(2) calculation
$end

$rem
mem_total 3000
mem_static 1500
sym_ignore true
method cvs-adc(2)
basis 6-31G*
ee_singlets 20
cc_rest_occ 5                  !only excitations from the lowest N orbitals
unrestricted  true
max_scf_cycles 200
SCF_ALGORITHM = DIIS_GDM
SCF_CONVERGENCE = 7
THRESH = 10
$end
--------------------------------------------------------------

             Standard Nuclear Orientation (Angstroms)
    I     Atom           X                Y                Z
 ----------------------------------------------------------------
    1      C      -0.5717460000     2.7060000000    -0.1437800000
    2      F       0.6546210000     2.5487010000    -0.0840690000
    3      F      -1.0571520000     3.4813310000     0.6901660000
    4      F      -1.4357090000     0.3408980000     0.7790760000
    5      F      -1.0397040000     2.8026910000    -1.2943560000
 ----------------------------------------------------------------

   84    -435.1459444510      7.58E-08 Convergence criterion met
 Total energy in the final basis set = -435.1459444510
  Term symbol:  2 (-) A                                     R^2 =  8.61523e-14
  Excitation energy:                                             293.113049 eV
  Term symbol:  3 (-) A                                     R^2 =  9.21398e-14
  Excitation energy:                                             295.054996 eV
  Term symbol:  4 (-) A                                     R^2 =  8.94694e-14
  Excitation energy:                                             304.291805 eV
  Term symbol:  5 (-) A                                     R^2 =  3.66379e-13
  Excitation energy:                                             304.452344 eV
  Term symbol:  6 (-) A                                     R^2 =  1.04548e-12
  Excitation energy:                                             304.553180 eV
  Term symbol:  7 (-) A                                     R^2 =  4.00047e-13
  Excitation energy:                                             304.925047 eV
  Term symbol:  8 (-) A                                     R^2 =  2.20599e-13
  Excitation energy:                                             306.218888 eV
  Term symbol:  9 (-) A                                     R^2 =  3.74163e-13
  Excitation energy:                                             306.463459 eV
  Term symbol:  10 (-) A                                    R^2 =  1.30685e-12
  Excitation energy:                                             306.650949 eV
  Excited state 10 (A)                                             [converged]
  Term symbol:  11 (-) A                                    R^2 =  1.45696e-11
  Excitation energy:                                             314.263371 eV
  Excited state 11 (A)                                             [converged]
  Term symbol:  12 (-) A                                    R^2 =  4.75103e-11
  Excitation energy:                                             314.742455 eV
  Excited state 12 (A)                                             [converged]
  Term symbol:  13 (-) A                                    R^2 =  1.45487e-10
  Excitation energy:                                             314.813915 eV
  Excited state 13 (A)                                             [converged]
  Term symbol:  14 (-) A                                    R^2 =  5.62584e-11
  Excitation energy:                                             314.865911 eV
  Excited state 14 (A)                                             [converged]
  Term symbol:  15 (-) A                                    R^2 =  2.57683e-11
  Excitation energy:                                             315.266521 eV
  Excited state 15 (A)                                             [converged]
  Term symbol:  16 (-) A                                    R^2 =  5.23086e-11
  Excitation energy:                                             315.302173 eV
  Excited state 16 (A)                                             [converged]
  Term symbol:  17 (-) A                                    R^2 =  1.65212e-10
  Excitation energy:                                             315.397475 eV
  Excited state 17 (A)                                             [converged]
  Term symbol:  18 (-) A                                    R^2 =  1.51003e-10
  Excitation energy:                                             315.790444 eV
  Excited state 18 (A)                                         [not converged]
  Term symbol:  19 (-) A                                    R^2 =  4.53454e-03
  Excitation energy:                                             332.632551 eV
  Excited state 19 (A)                                         [not converged]
  Term symbol:  20 (-) A                                    R^2 =  1.51292e-04
  Excitation energy:                                             332.690539 eV
  Excited state 20 (A)                                         [not converged]
  Term symbol:  21 (-) A                                    R^2 =  3.08539e-04
  Excitation energy:                                             332.794230 eV

                    Orbital Energies (a.u.)
 --------------------------------------------------------------

 Alpha MOs
 -- Occupied --
-26.740 -26.740 -26.736 -26.631 -11.959  -2.154  -2.046  -2.040
 -1.879  -1.318  -1.225  -1.223  -1.172  -1.062  -1.061  -1.046
 -1.031  -1.029  -1.011  -0.940  -0.937

 Beta MOs
 -- Occupied --
-26.740 -26.740 -26.736 -26.582 -11.959  -2.154  -2.046  -2.040
 -1.685  -1.318  -1.225  -1.224  -1.172  -1.062  -1.061  -1.032
 -1.029  -1.011  -0.885  -0.884

          Ground-State Mulliken Net Atomic Charges

     Atom                 Charge (a.u.)    Spin (a.u.)
  --------------------------------------------------------
      1 C                     1.253476      -0.005041
      2 F                    -0.093924      -0.000342
      3 F                    -0.093823      -0.000341
      4 F                     0.036076       1.006049
      5 F                    -0.101806      -0.000326
  --------------------------------------------------------
  Sum of atomic charges =     1.000000

                    Cartesian Multipole Moments
 -----------------------------------------------------------------
    Charge (ESU x 10^10)
                 4.8032
    Dipole Moment (Debye)
         X      -3.0132      Y      12.2505      Z      -0.3839
       Tot      12.6215
    Quadrupole Moments (Debye-Ang)
        XX     -18.5469     XY      -7.2896     YY      12.0202
        XZ      -0.2790     YZ      -1.5618     ZZ     -20.9010

 Total job time:  1781.00s(wall), 1750.89s(cpu)
        *  Thank you very much for using Q-Chem.  Have a nice day.  *
