 Q-Chem 4.3, Q-Chem, Inc., Pleasanton, CA (2015)
 Q-Chem 4.3.0 for Intel X86 Linux

User input:
--------------------------------------------------------------
$comment
XAS calculation for valence excited states for CF4+ using cvs-adc(2) + 6-31G* basis set
job 1 - determination of HF orbitals
$end

$molecule
1 2
6  -0.684803  2.39096  -0.017248
9  0.598502  2.346009  0.001209
9  -1.133848  3.287214  0.78526
9  -1.138038  1.18378  0.430094
9  -1.133149  2.555607  -1.205669
$end

$comment
cvs-adc(2) calculation
$end

$rem
mem_total 3000
mem_static 1500
sym_ignore true
method cvs-adc(2)
basis 6-31G*
ee_singlets 20
cc_rest_occ 5                  !only excitations from the lowest N orbitals
unrestricted  true
max_scf_cycles 200
SCF_ALGORITHM = DIIS_GDM
SCF_CONVERGENCE = 7
THRESH = 10
$end
--------------------------------------------------------------

             Standard Nuclear Orientation (Angstroms)
    I     Atom           X                Y                Z
 ----------------------------------------------------------------
    1      C      -0.6848030000     2.3909600000    -0.0172480000
    2      F       0.5985020000     2.3460090000     0.0012090000
    3      F      -1.1338480000     3.2872140000     0.7852600000
    4      F      -1.1380380000     1.1837800000     0.4300940000
    5      F      -1.1331490000     2.5556070000    -1.2056690000
 ----------------------------------------------------------------

   60    -435.0933398826      4.12E-08 Convergence criterion met
 Total energy in the final basis set = -435.0933398826
  Term symbol:  2 (-) A                                     R^2 =  3.88560e-14
  Excitation energy:                                             291.709229 eV
  Term symbol:  3 (-) A                                     R^2 =  5.05430e-14
  Excitation energy:                                             298.096353 eV
  Term symbol:  4 (-) A                                     R^2 =  5.62266e-14
  Excitation energy:                                             300.720652 eV
  Term symbol:  5 (-) A                                     R^2 =  3.89850e-14
  Excitation energy:                                             302.698810 eV
  Term symbol:  6 (-) A                                     R^2 =  3.58767e-14
  Excitation energy:                                             302.793458 eV
  Term symbol:  7 (-) A                                     R^2 =  3.74441e-14
  Excitation energy:                                             304.763171 eV
  Term symbol:  8 (-) A                                     R^2 =  8.84262e-14
  Excitation energy:                                             304.781972 eV
  Term symbol:  9 (-) A                                     R^2 =  5.10143e-14
  Excitation energy:                                             304.833363 eV
  Term symbol:  10 (-) A                                    R^2 =  3.00612e-13
  Excitation energy:                                             307.253047 eV
  Excited state 10 (A)                                             [converged]
  Term symbol:  11 (-) A                                    R^2 =  6.82692e-13
  Excitation energy:                                             313.896681 eV
  Excited state 11 (A)                                             [converged]
  Term symbol:  12 (-) A                                    R^2 =  1.10534e-13
  Excitation energy:                                             314.434367 eV
  Excited state 12 (A)                                             [converged]
  Term symbol:  13 (-) A                                    R^2 =  3.11607e-13
  Excitation energy:                                             314.508900 eV
  Excited state 13 (A)                                             [converged]
  Term symbol:  14 (-) A                                    R^2 =  4.61354e-13
  Excitation energy:                                             314.765604 eV
  Excited state 14 (A)                                             [converged]
  Term symbol:  15 (-) A                                    R^2 =  3.23387e-13
  Excitation energy:                                             315.125875 eV
  Excited state 15 (A)                                             [converged]
  Term symbol:  16 (-) A                                    R^2 =  1.91574e-13
  Excitation energy:                                             315.216297 eV
  Excited state 16 (A)                                             [converged]
  Term symbol:  17 (-) A                                    R^2 =  1.72385e-13
  Excitation energy:                                             315.351285 eV
  Excited state 17 (A)                                             [converged]
  Term symbol:  18 (-) A                                    R^2 =  7.07361e-14
  Excitation energy:                                             315.934189 eV
  Excited state 18 (A)                                             [converged]
  Term symbol:  19 (-) A                                    R^2 =  6.97690e-09
  Excitation energy:                                             329.190283 eV
  Excited state 19 (A)                                             [converged]
  Term symbol:  20 (-) A                                    R^2 =  8.99088e-09
  Excitation energy:                                             329.820320 eV
  Excited state 20 (A)                                             [converged]
  Term symbol:  21 (-) A                                    R^2 =  5.79805e-07
  Excitation energy:                                             330.075306 eV

                    Orbital Energies (a.u.)
 --------------------------------------------------------------

 Alpha MOs
 -- Occupied --
-26.976 -26.676 -26.675 -26.663 -11.930  -2.277  -2.069  -1.980
 -1.972  -1.409  -1.386  -1.287  -1.232  -1.153  -1.141  -1.037
 -1.017  -1.013  -0.977  -0.972  -0.954

 Beta MOs
 -- Occupied --
-26.924 -26.674 -26.673 -26.663 -11.931  -2.141  -2.021  -1.973
 -1.971  -1.368  -1.244  -1.224  -1.163  -1.130  -1.018  -1.013
 -1.005  -0.976  -0.971  -0.952

          Ground-State Mulliken Net Atomic Charges

     Atom                 Charge (a.u.)    Spin (a.u.)
  --------------------------------------------------------
      1 C                     1.347132      -0.055684
      2 F                    -0.212585       0.031435
      3 F                    -0.213567       0.027811
      4 F                     0.297347       0.998773
      5 F                    -0.218326      -0.002336
  --------------------------------------------------------
  Sum of atomic charges =     1.000000

                    Cartesian Multipole Moments
 -----------------------------------------------------------------
    Charge (ESU x 10^10)
                 4.8032
    Dipole Moment (Debye)
         X      -4.3836      Y       8.4719      Z       1.0934
       Tot       9.6013
    Quadrupole Moments (Debye-Ang)
        XX     -17.4648     XY      -7.0897     YY      -4.9995
        XZ      -1.5098     YZ       1.2974     ZZ     -21.8005

 Total job time:  1246.55s(wall), 1208.23s(cpu)
        *  Thank you very much for using Q-Chem.  Have a nice day.  *
