 Q-Chem 4.3, Q-Chem, Inc., Pleasanton, CA (2015)
 Q-Chem 4.3.0 for Intel X86 Linux

User input:
--------------------------------------------------------------
$comment
XAS calculation for valence excited states for CF4+ using cvs-adc(2) + 6-31G* basis set
job 1 - determination of HF orbitals
$end

$molecule
1 2
6  -0.511886  2.849978  -0.185921
9  0.577955  2.31303  0.009317
9  -1.146013  3.250695  0.789489
9  -1.207568  0.980807  0.518323
9  -1.140127  2.538148  -1.199695
$end

$comment
cvs-adc(2) calculation
$end

$rem
mem_total 3000
mem_static 1500
sym_ignore true
method cvs-adc(2)
basis 6-31G*
ee_singlets 20
cc_rest_occ 5                  !only excitations from the lowest N orbitals
unrestricted  true
max_scf_cycles 200
SCF_ALGORITHM = DIIS_GDM
SCF_CONVERGENCE = 7
THRESH = 10
$end
--------------------------------------------------------------

             Standard Nuclear Orientation (Angstroms)
    I     Atom           X                Y                Z
 ----------------------------------------------------------------
    1      C      -0.5118860000     2.8499780000    -0.1859210000
    2      F       0.5779550000     2.3130300000     0.0093170000
    3      F      -1.1460130000     3.2506950000     0.7894890000
    4      F      -1.2075680000     0.9808070000     0.5183230000
    5      F      -1.1401270000     2.5381480000    -1.1996950000
 ----------------------------------------------------------------

   59    -435.1467244057      2.57E-08 Convergence criterion met
 Total energy in the final basis set = -435.1467244057
  Term symbol:  2 (-) A                                     R^2 =  3.24113e-14
  Excitation energy:                                             293.748950 eV
  Term symbol:  3 (-) A                                     R^2 =  3.26630e-14
  Excitation energy:                                             295.666013 eV
  Term symbol:  4 (-) A                                     R^2 =  1.17001e-13
  Excitation energy:                                             302.467603 eV
  Term symbol:  5 (-) A                                     R^2 =  3.08664e-14
  Excitation energy:                                             303.816570 eV
  Term symbol:  6 (-) A                                     R^2 =  1.90147e-14
  Excitation energy:                                             305.097525 eV
  Term symbol:  7 (-) A                                     R^2 =  3.03671e-14
  Excitation energy:                                             305.136146 eV
  Term symbol:  8 (-) A                                     R^2 =  3.97797e-14
  Excitation energy:                                             305.781524 eV
  Term symbol:  9 (-) A                                     R^2 =  3.47672e-14
  Excitation energy:                                             307.225878 eV
  Term symbol:  10 (-) A                                    R^2 =  5.07509e-14
  Excitation energy:                                             307.266526 eV
  Excited state 10 (A)                                             [converged]
  Term symbol:  11 (-) A                                    R^2 =  9.61058e-14
  Excitation energy:                                             313.372446 eV
  Excited state 11 (A)                                             [converged]
  Term symbol:  12 (-) A                                    R^2 =  1.02743e-13
  Excitation energy:                                             314.797900 eV
  Excited state 12 (A)                                             [converged]
  Term symbol:  13 (-) A                                    R^2 =  1.62035e-13
  Excitation energy:                                             315.058565 eV
  Excited state 13 (A)                                             [converged]
  Term symbol:  14 (-) A                                    R^2 =  1.38824e-13
  Excitation energy:                                             315.082264 eV
  Excited state 14 (A)                                             [converged]
  Term symbol:  15 (-) A                                    R^2 =  5.19704e-13
  Excitation energy:                                             315.505433 eV
  Excited state 15 (A)                                             [converged]
  Term symbol:  16 (-) A                                    R^2 =  7.74319e-13
  Excitation energy:                                             315.508011 eV
  Excited state 16 (A)                                             [converged]
  Term symbol:  17 (-) A                                    R^2 =  8.12093e-09
  Excitation energy:                                             318.593773 eV
  Excited state 17 (A)                                             [converged]
  Term symbol:  18 (-) A                                    R^2 =  3.52499e-10
  Excitation energy:                                             319.264939 eV
  Excited state 18 (A)                                         [not converged]
  Term symbol:  19 (-) A                                    R^2 =  2.30214e-05
  Excitation energy:                                             331.652171 eV
  Excited state 19 (A)                                         [not converged]
  Term symbol:  20 (-) A                                    R^2 =  2.03468e-05
  Excitation energy:                                             331.824935 eV
  Excited state 20 (A)                                         [not converged]
  Term symbol:  21 (-) A                                    R^2 =  1.64279e-04
  Excitation energy:                                             332.088332 eV

                    Orbital Energies (a.u.)
 --------------------------------------------------------------

 Alpha MOs
 -- Occupied --
-26.738 -26.738 -26.736 -26.656 -11.953  -2.158  -2.052  -2.050
 -1.916  -1.319  -1.230  -1.229  -1.187  -1.092  -1.064  -1.060
 -1.043  -1.029  -1.014  -0.964  -0.962

 Beta MOs
 -- Occupied --
-26.738 -26.738 -26.736 -26.608 -11.953  -2.158  -2.052  -2.050
 -1.725  -1.318  -1.230  -1.229  -1.183  -1.064  -1.063  -1.041
 -1.039  -1.014  -0.913  -0.912

          Ground-State Mulliken Net Atomic Charges

     Atom                 Charge (a.u.)    Spin (a.u.)
  --------------------------------------------------------
      1 C                     1.333671      -0.006627
      2 F                    -0.121854       0.001656
      3 F                    -0.121533       0.001462
      4 F                     0.030328       1.004451
      5 F                    -0.120612      -0.000941
  --------------------------------------------------------
  Sum of atomic charges =     1.000000

                    Cartesian Multipole Moments
 -----------------------------------------------------------------
    Charge (ESU x 10^10)
                 4.8032
    Dipole Moment (Debye)
         X      -2.5462      Y      13.4416      Z      -0.7886
       Tot      13.7034
    Quadrupole Moments (Debye-Ang)
        XX     -19.1227     XY      -6.8456     YY      18.0372
        XZ      -0.0229     YZ      -2.6380     ZZ     -20.8148

 Total job time:  1544.95s(wall), 1504.39s(cpu)
        *  Thank you very much for using Q-Chem.  Have a nice day.  *
