 Q-Chem 4.3, Q-Chem, Inc., Pleasanton, CA (2015)
 Q-Chem 4.3.0 for Intel X86 Linux

User input:
--------------------------------------------------------------
$comment
XAS calculation for valence excited states for CF4+ using cvs-adc(2) + 6-31G* basis set
job 1 - determination of HF orbitals
$end

$molecule
1 2
6  -0.462792  2.975586  -0.228859
9  0.580424  2.321862  0.004192
9  -1.143639  3.259988  0.784431
9  -1.247183  0.868631  0.564725
9  -1.136364  2.552862  -1.208794
$end

$comment
cvs-adc(2) calculation
$end

$rem
mem_total 3000
mem_static 1500
sym_ignore true
method cvs-adc(2)
basis 6-31G*
ee_singlets 20
cc_rest_occ 5                  !only excitations from the lowest N orbitals
unrestricted  true
max_scf_cycles 200
SCF_ALGORITHM = DIIS_GDM
SCF_CONVERGENCE = 7
THRESH = 10
$end
--------------------------------------------------------------

             Standard Nuclear Orientation (Angstroms)
    I     Atom           X                Y                Z
 ----------------------------------------------------------------
    1      C      -0.4627920000     2.9755860000    -0.2288590000
    2      F       0.5804240000     2.3218620000     0.0041920000
    3      F      -1.1436390000     3.2599880000     0.7844310000
    4      F      -1.2471830000     0.8686310000     0.5647250000
    5      F      -1.1363640000     2.5528620000    -1.2087940000
 ----------------------------------------------------------------

   66    -435.1228156438      6.64E-08 Convergence criterion met
 Total energy in the final basis set = -435.1228156438
  Term symbol:  2 (-) A                                     R^2 =  4.94370e-14
  Excitation energy:                                             292.739631 eV
  Term symbol:  3 (-) A                                     R^2 =  5.50738e-14
  Excitation energy:                                             294.628034 eV
  Term symbol:  4 (-) A                                     R^2 =  1.32562e-13
  Excitation energy:                                             303.794434 eV
  Term symbol:  5 (-) A                                     R^2 =  9.16864e-14
  Excitation energy:                                             303.888598 eV
  Term symbol:  6 (-) A                                     R^2 =  1.53267e-13
  Excitation energy:                                             304.017364 eV
  Term symbol:  7 (-) A                                     R^2 =  3.31787e-13
  Excitation energy:                                             304.233528 eV
  Term symbol:  8 (-) A                                     R^2 =  2.11557e-13
  Excitation energy:                                             305.822657 eV
  Term symbol:  9 (-) A                                     R^2 =  2.90594e-13
  Excitation energy:                                             306.013121 eV
  Term symbol:  10 (-) A                                    R^2 =  1.73654e-13
  Excitation energy:                                             306.332677 eV
  Excited state 10 (A)                                             [converged]
  Term symbol:  11 (-) A                                    R^2 =  2.37773e-13
  Excitation energy:                                             313.384060 eV
  Excited state 11 (A)                                             [converged]
  Term symbol:  12 (-) A                                    R^2 =  2.33065e-13
  Excitation energy:                                             314.766202 eV
  Excited state 12 (A)                                             [converged]
  Term symbol:  13 (-) A                                    R^2 =  3.28620e-13
  Excitation energy:                                             314.781568 eV
  Excited state 13 (A)                                             [converged]
  Term symbol:  14 (-) A                                    R^2 =  6.89709e-13
  Excitation energy:                                             314.787536 eV
  Excited state 14 (A)                                             [converged]
  Term symbol:  15 (-) A                                    R^2 =  6.44171e-13
  Excitation energy:                                             315.277327 eV
  Excited state 15 (A)                                             [converged]
  Term symbol:  16 (-) A                                    R^2 =  3.85998e-13
  Excitation energy:                                             315.296539 eV
  Excited state 16 (A)                                             [converged]
  Term symbol:  17 (-) A                                    R^2 =  8.83201e-13
  Excitation energy:                                             317.894543 eV
  Excited state 17 (A)                                             [converged]
  Term symbol:  18 (-) A                                    R^2 =  8.50558e-13
  Excitation energy:                                             318.507790 eV
  Excited state 18 (A)                                         [not converged]
  Term symbol:  19 (-) A                                    R^2 =  2.71755e-05
  Excitation energy:                                             332.169300 eV
  Excited state 19 (A)                                         [not converged]
  Term symbol:  20 (-) A                                    R^2 =  2.14999e-05
  Excitation energy:                                             332.217921 eV
  Excited state 20 (A)                                         [not converged]
  Term symbol:  21 (-) A                                    R^2 =  5.36204e-05
  Excitation energy:                                             332.292078 eV

                    Orbital Energies (a.u.)
 --------------------------------------------------------------

 Alpha MOs
 -- Occupied --
-26.739 -26.739 -26.735 -26.623 -11.964  -2.143  -2.037  -2.031
 -1.879  -1.316  -1.216  -1.215  -1.168  -1.065  -1.057  -1.046
 -1.027  -1.019  -1.010  -0.935  -0.932

 Beta MOs
 -- Occupied --
-26.739 -26.739 -26.735 -26.574 -11.964  -2.143  -2.037  -2.031
 -1.687  -1.316  -1.216  -1.215  -1.166  -1.058  -1.057  -1.029
 -1.027  -1.010  -0.883  -0.881

          Ground-State Mulliken Net Atomic Charges

     Atom                 Charge (a.u.)    Spin (a.u.)
  --------------------------------------------------------
      1 C                     1.353378      -0.006105
      2 F                    -0.122023       0.001378
      3 F                    -0.122345       0.001293
      4 F                     0.019645       1.003532
      5 F                    -0.128654      -0.000097
  --------------------------------------------------------
  Sum of atomic charges =     1.000000

                    Cartesian Multipole Moments
 -----------------------------------------------------------------
    Charge (ESU x 10^10)
                 4.8032
    Dipole Moment (Debye)
         X      -2.1932      Y      14.3206      Z      -1.0721
       Tot      14.5272
    Quadrupole Moments (Debye-Ang)
        XX     -19.5434     XY      -6.2910     YY      22.9922
        XZ       0.0408     YZ      -3.6059     ZZ     -20.7973

 Total job time:  1493.90s(wall), 1423.42s(cpu)
        *  Thank you very much for using Q-Chem.  Have a nice day.  *
