 Q-Chem 4.3, Q-Chem, Inc., Pleasanton, CA (2015)
 Q-Chem 4.3.0 for Intel X86 Linux

User input:
--------------------------------------------------------------
$comment
XAS calculation for valence excited states for CF4+ using cvs-adc(2) + 6-31G* basis set
job 1 - determination of HF orbitals
$end

$molecule
1 2
6  -0.424778  3.098216  -0.290027
9  0.667654  2.612517  -0.113749
9  -1.033332  3.540165  0.655515
9  -1.596486  -0.108242  0.960942
9  -1.008609  2.881446  -1.319518
$end

$comment
cvs-adc(2) calculation
$end

$rem
mem_total 3000
mem_static 1500
sym_ignore true
method cvs-adc(2)
basis 6-31G*
ee_singlets 20
cc_rest_occ 5                  !only excitations from the lowest N orbitals
unrestricted  true
max_scf_cycles 200
SCF_ALGORITHM = DIIS_GDM
SCF_CONVERGENCE = 7
THRESH = 10
$end
--------------------------------------------------------------

             Standard Nuclear Orientation (Angstroms)
    I     Atom           X                Y                Z
 ----------------------------------------------------------------
    1      C      -0.4247780000     3.0982160000    -0.2900270000
    2      F       0.6676540000     2.6125170000    -0.1137490000
    3      F      -1.0333320000     3.5401650000     0.6555150000
    4      F      -1.5964860000    -0.1082420000     0.9609420000
    5      F      -1.0086090000     2.8814460000    -1.3195180000
 ----------------------------------------------------------------

   21    -435.1707489636      9.31E-08 Convergence criterion met
 Total energy in the final basis set = -435.1707489636
  Term symbol:  2 (-) A                                     R^2 =  6.54150e-14
  Excitation energy:                                             294.365056 eV
  Term symbol:  3 (-) A                                     R^2 =  6.17795e-14
  Excitation energy:                                             296.274931 eV
  Term symbol:  4 (-) A                                     R^2 =  1.13371e-13
  Excitation energy:                                             303.531645 eV
  Term symbol:  5 (-) A                                     R^2 =  4.68344e-14
  Excitation energy:                                             305.012813 eV
  Term symbol:  6 (-) A                                     R^2 =  3.58935e-14
  Excitation energy:                                             305.993097 eV
  Term symbol:  7 (-) A                                     R^2 =  6.35322e-14
  Excitation energy:                                             306.114607 eV
  Term symbol:  8 (-) A                                     R^2 =  2.74175e-14
  Excitation energy:                                             307.770815 eV
  Term symbol:  9 (-) A                                     R^2 =  4.57503e-14
  Excitation energy:                                             308.178237 eV
  Term symbol:  10 (-) A                                    R^2 =  6.74432e-14
  Excitation energy:                                             308.293850 eV
  Excited state 10 (A)                                             [converged]
  Term symbol:  11 (-) A                                    R^2 =  1.42828e-13
  Excitation energy:                                             313.478694 eV
  Excited state 11 (A)                                             [converged]
  Term symbol:  12 (-) A                                    R^2 =  3.03134e-13
  Excitation energy:                                             313.832632 eV
  Excited state 12 (A)                                             [converged]
  Term symbol:  13 (-) A                                    R^2 =  1.70394e-13
  Excitation energy:                                             314.271547 eV
  Excited state 13 (A)                                             [converged]
  Term symbol:  14 (-) A                                    R^2 =  1.67564e-13
  Excitation energy:                                             314.928817 eV
  Excited state 14 (A)                                             [converged]
  Term symbol:  15 (-) A                                    R^2 =  2.22977e-13
  Excitation energy:                                             314.936938 eV
  Excited state 15 (A)                                             [converged]
  Term symbol:  16 (-) A                                    R^2 =  2.53606e-13
  Excitation energy:                                             315.316149 eV
  Excited state 16 (A)                                             [converged]
  Term symbol:  17 (-) A                                    R^2 =  4.21629e-13
  Excitation energy:                                             315.333051 eV
  Excited state 17 (A)                                             [converged]
  Term symbol:  18 (-) A                                    R^2 =  5.25406e-13
  Excitation energy:                                             315.550883 eV
  Excited state 18 (A)                                         [not converged]
  Term symbol:  19 (-) A                                    R^2 =  1.09909e-05
  Excitation energy:                                             332.580129 eV
  Excited state 19 (A)                                         [not converged]
  Term symbol:  20 (-) A                                    R^2 =  5.84453e-04
  Excitation energy:                                             332.641892 eV
  Excited state 20 (A)                                         [not converged]
  Term symbol:  21 (-) A                                    R^2 =  7.14535e-05
  Excitation energy:                                             332.767312 eV

                    Orbital Energies (a.u.)
 --------------------------------------------------------------

 Alpha MOs
 -- Occupied --
-26.751 -26.749 -26.749 -26.550 -11.951  -2.185  -2.076  -2.073
 -1.802  -1.329  -1.251  -1.251  -1.199  -1.078  -1.078  -1.051
 -1.049  -1.025  -0.970  -0.864  -0.862

 Beta MOs
 -- Occupied --
-26.751 -26.749 -26.749 -26.502 -11.951  -2.185  -2.076  -2.073
 -1.610  -1.329  -1.251  -1.251  -1.199  -1.078  -1.078  -1.051
 -1.049  -1.025  -0.812  -0.810

          Ground-State Mulliken Net Atomic Charges

     Atom                 Charge (a.u.)    Spin (a.u.)
  --------------------------------------------------------
      1 C                     1.212624      -0.000430
      2 F                    -0.074159       0.000028
      3 F                    -0.073550       0.000029
      4 F                     0.002710       1.000351
      5 F                    -0.067625       0.000023
  --------------------------------------------------------
  Sum of atomic charges =     1.000000

                    Cartesian Multipole Moments
 -----------------------------------------------------------------
    Charge (ESU x 10^10)
                 4.8032
    Dipole Moment (Debye)
         X      -2.0475      Y      14.8810      Z      -1.4048
       Tot      15.0867
    Quadrupole Moments (Debye-Ang)
        XX     -19.5463     XY      -5.9976     YY      26.0037
        XZ       0.8951     YZ      -4.7093     ZZ     -20.1282

 Total job time:  1305.27s(wall), 1271.78s(cpu)
        *  Thank you very much for using Q-Chem.  Have a nice day.  *
