 Q-Chem 4.3, Q-Chem, Inc., Pleasanton, CA (2015)
 Q-Chem 4.3.0 for Intel X86 Linux

User input:
--------------------------------------------------------------
$comment
XAS calculation for valence excited states for CF4+ using cvs-adc(2) + 6-31G* basis set
job 1 - determination of HF orbitals
$end

$molecule
1 2
6  -0.580591  2.673997  -0.125948
9  0.579487  2.321668  0.008156
9  -1.140882  3.256886  0.786676
9  -1.174715  1.075681  0.477823
9  -1.136246  2.5396  -1.193102
$end

$comment
cvs-adc(2) calculation
$end

$rem
mem_total 3000
mem_static 1500
sym_ignore true
method cvs-adc(2)
basis 6-31G*
ee_singlets 20
cc_rest_occ 5                  !only excitations from the lowest N orbitals
unrestricted  true
max_scf_cycles 200
SCF_ALGORITHM = DIIS_GDM
SCF_CONVERGENCE = 7
THRESH = 10
$end
--------------------------------------------------------------

             Standard Nuclear Orientation (Angstroms)
    I     Atom           X                Y                Z
 ----------------------------------------------------------------
    1      C      -0.5805910000     2.6739970000    -0.1259480000
    2      F       0.5794870000     2.3216680000     0.0081560000
    3      F      -1.1408820000     3.2568860000     0.7866760000
    4      F      -1.1747150000     1.0756810000     0.4778230000
    5      F      -1.1362460000     2.5396000000    -1.1931020000
 ----------------------------------------------------------------

   50    -435.1539710484      8.08E-08 Convergence criterion met
 Total energy in the final basis set = -435.1539710484
  Term symbol:  2 (-) A                                     R^2 =  1.17673e-13
  Excitation energy:                                             294.958597 eV
  Term symbol:  3 (-) A                                     R^2 =  6.76365e-14
  Excitation energy:                                             297.033285 eV
  Term symbol:  4 (-) A                                     R^2 =  4.67402e-12
  Excitation energy:                                             299.367706 eV
  Term symbol:  5 (-) A                                     R^2 =  3.22268e-13
  Excitation energy:                                             303.875444 eV
  Term symbol:  6 (-) A                                     R^2 =  2.27780e-13
  Excitation energy:                                             305.776850 eV
  Term symbol:  7 (-) A                                     R^2 =  9.31036e-14
  Excitation energy:                                             305.791911 eV
  Term symbol:  8 (-) A                                     R^2 =  1.35672e-13
  Excitation energy:                                             306.036566 eV
  Term symbol:  9 (-) A                                     R^2 =  1.00382e-12
  Excitation energy:                                             307.987539 eV
  Term symbol:  10 (-) A                                    R^2 =  1.01577e-12
  Excitation energy:                                             308.236673 eV
  Excited state 10 (A)                                             [converged]
  Term symbol:  11 (-) A                                    R^2 =  3.84316e-13
  Excitation energy:                                             313.634106 eV
  Excited state 11 (A)                                             [converged]
  Term symbol:  12 (-) A                                    R^2 =  2.12234e-13
  Excitation energy:                                             314.982600 eV
  Excited state 12 (A)                                             [converged]
  Term symbol:  13 (-) A                                    R^2 =  2.59359e-13
  Excitation energy:                                             315.296185 eV
  Excited state 13 (A)                                             [converged]
  Term symbol:  14 (-) A                                    R^2 =  1.46991e-13
  Excitation energy:                                             315.416643 eV
  Excited state 14 (A)                                             [converged]
  Term symbol:  15 (-) A                                    R^2 =  1.83406e-13
  Excitation energy:                                             315.738525 eV
  Excited state 15 (A)                                             [converged]
  Term symbol:  16 (-) A                                    R^2 =  1.32395e-12
  Excitation energy:                                             315.792840 eV
  Excited state 16 (A)                                             [converged]
  Term symbol:  17 (-) A                                    R^2 =  3.14724e-12
  Excitation energy:                                             317.798181 eV
  Excited state 17 (A)                                             [converged]
  Term symbol:  18 (-) A                                    R^2 =  1.12499e-12
  Excitation energy:                                             318.342163 eV
  Excited state 18 (A)                                             [converged]
  Term symbol:  19 (-) A                                    R^2 =  3.01192e-07
  Excitation energy:                                             331.141907 eV
  Excited state 19 (A)                                         [not converged]
  Term symbol:  20 (-) A                                    R^2 =  1.06003e-04
  Excitation energy:                                             331.782002 eV
  Excited state 20 (A)                                         [not converged]
  Term symbol:  21 (-) A                                    R^2 =  1.18585e-04
  Excitation energy:                                             331.941887 eV

                    Orbital Energies (a.u.)
 --------------------------------------------------------------

 Alpha MOs
 -- Occupied --
-26.739 -26.725 -26.723 -26.723 -11.941  -2.164  -2.054  -2.051
 -1.998  -1.316  -1.231  -1.230  -1.209  -1.162  -1.074  -1.058
 -1.057  -1.031  -1.016  -1.010  -1.006

 Beta MOs
 -- Occupied --
-26.725 -26.723 -26.723 -26.689 -11.941  -2.161  -2.055  -2.050
 -1.809  -1.314  -1.230  -1.229  -1.198  -1.058  -1.057  -1.055
 -1.038  -1.005  -0.976  -0.968

          Ground-State Mulliken Net Atomic Charges

     Atom                 Charge (a.u.)    Spin (a.u.)
  --------------------------------------------------------
      1 C                     1.318478      -0.010200
      2 F                    -0.136280       0.001999
      3 F                    -0.135308       0.001644
      4 F                     0.072831       1.009510
      5 F                    -0.119720      -0.002954
  --------------------------------------------------------
  Sum of atomic charges =     1.000000

                    Cartesian Multipole Moments
 -----------------------------------------------------------------
    Charge (ESU x 10^10)
                 4.8032
    Dipole Moment (Debye)
         X      -3.1865      Y      11.8263      Z      -0.2574
       Tot      12.2508
    Quadrupole Moments (Debye-Ang)
        XX     -18.4548     XY      -7.3274     YY       9.9814
        XZ      -0.3298     YZ      -1.2995     ZZ     -20.9707

 Total job time:  1587.46s(wall), 1535.86s(cpu)
        *  Thank you very much for using Q-Chem.  Have a nice day.  *
