 Q-Chem 4.3, Q-Chem, Inc., Pleasanton, CA (2015)
 Q-Chem 4.3.0 for Intel X86 Linux

User input:
--------------------------------------------------------------
$comment
XAS calculation for valence excited states for CF4+ using cvs-adc(2) + 6-31G* basis set
job 1 - determination of HF orbitals
$end

$molecule
1 2
6  -0.692719  2.36853  -0.007923
9  0.600487  2.348008  0.000554
9  -1.133467  3.290065  0.785343
9  -1.135401  1.191545  0.426652
9  -1.133152  2.557161  -1.207545
$end

$comment
cvs-adc(2) calculation
$end

$rem
mem_total 3000
mem_static 1500
sym_ignore true
method cvs-adc(2)
basis 6-31G*
ee_singlets 20
cc_rest_occ 5                  !only excitations from the lowest N orbitals
unrestricted  true
max_scf_cycles 200
SCF_ALGORITHM = DIIS_GDM
SCF_CONVERGENCE = 7
THRESH = 10
$end
--------------------------------------------------------------

             Standard Nuclear Orientation (Angstroms)
    I     Atom           X                Y                Z
 ----------------------------------------------------------------
    1      C      -0.6927190000     2.3685300000    -0.0079230000
    2      F       0.6004870000     2.3480080000     0.0005540000
    3      F      -1.1334670000     3.2900650000     0.7853430000
    4      F      -1.1354010000     1.1915450000     0.4266520000
    5      F      -1.1331520000     2.5571610000    -1.2075450000
 ----------------------------------------------------------------

   61    -435.0803949867      5.76E-08 Convergence criterion met
 Total energy in the final basis set = -435.0803949867
  Term symbol:  2 (-) A                                     R^2 =  2.72433e-13
  Excitation energy:                                             291.151501 eV
  Term symbol:  3 (-) A                                     R^2 =  1.50946e-13
  Excitation energy:                                             298.769154 eV
  Term symbol:  4 (-) A                                     R^2 =  1.58624e-13
  Excitation energy:                                             301.410151 eV
  Term symbol:  5 (-) A                                     R^2 =  4.30302e-14
  Excitation energy:                                             302.327589 eV
  Term symbol:  6 (-) A                                     R^2 =  3.47358e-14
  Excitation energy:                                             302.401037 eV
  Term symbol:  7 (-) A                                     R^2 =  1.86327e-13
  Excitation energy:                                             304.394856 eV
  Term symbol:  8 (-) A                                     R^2 =  3.81965e-14
  Excitation energy:                                             304.411958 eV
  Term symbol:  9 (-) A                                     R^2 =  4.17294e-13
  Excitation energy:                                             304.685474 eV
  Term symbol:  10 (-) A                                    R^2 =  1.09097e-13
  Excitation energy:                                             307.189096 eV
  Excited state 10 (A)                                             [converged]
  Term symbol:  11 (-) A                                    R^2 =  2.13783e-13
  Excitation energy:                                             313.565071 eV
  Excited state 11 (A)                                             [converged]
  Term symbol:  12 (-) A                                    R^2 =  2.51696e-13
  Excitation energy:                                             314.123867 eV
  Excited state 12 (A)                                             [converged]
  Term symbol:  13 (-) A                                    R^2 =  5.03914e-13
  Excitation energy:                                             314.402117 eV
  Excited state 13 (A)                                             [converged]
  Term symbol:  14 (-) A                                    R^2 =  2.91616e-13
  Excitation energy:                                             314.657820 eV
  Excited state 14 (A)                                             [converged]
  Term symbol:  15 (-) A                                    R^2 =  3.75622e-13
  Excitation energy:                                             315.024914 eV
  Excited state 15 (A)                                             [converged]
  Term symbol:  16 (-) A                                    R^2 =  1.79365e-13
  Excitation energy:                                             315.112535 eV
  Excited state 16 (A)                                             [converged]
  Term symbol:  17 (-) A                                    R^2 =  3.83037e-13
  Excitation energy:                                             315.558940 eV
  Excited state 17 (A)                                             [converged]
  Term symbol:  18 (-) A                                    R^2 =  5.21289e-13
  Excitation energy:                                             316.092180 eV
  Excited state 18 (A)                                         [not converged]
  Term symbol:  19 (-) A                                    R^2 =  1.64062e-06
  Excitation energy:                                             329.153417 eV
  Excited state 19 (A)                                         [not converged]
  Term symbol:  20 (-) A                                    R^2 =  2.07208e-06
  Excitation energy:                                             329.757850 eV
  Excited state 20 (A)                                         [not converged]
  Term symbol:  21 (-) A                                    R^2 =  5.33825e-05
  Excitation energy:                                             330.028134 eV

                    Orbital Energies (a.u.)
 --------------------------------------------------------------

 Alpha MOs
 -- Occupied --
-26.994 -26.679 -26.666 -26.659 -11.930  -2.300  -2.062  -1.974
 -1.964  -1.428  -1.403  -1.305  -1.230  -1.145  -1.134  -1.036
 -1.013  -1.010  -0.972  -0.967  -0.950

 Beta MOs
 -- Occupied --
-26.942 -26.676 -26.664 -26.659 -11.932  -2.155  -2.025  -1.966
 -1.962  -1.384  -1.259  -1.222  -1.156  -1.124  -1.015  -1.007
 -1.001  -0.971  -0.965  -0.948

          Ground-State Mulliken Net Atomic Charges

     Atom                 Charge (a.u.)    Spin (a.u.)
  --------------------------------------------------------
      1 C                     1.339425      -0.065845
      2 F                    -0.212234       0.053028
      3 F                    -0.223569       0.020299
      4 F                     0.323694       0.989455
      5 F                    -0.227316       0.003063
  --------------------------------------------------------
  Sum of atomic charges =     1.000000

                    Cartesian Multipole Moments
 -----------------------------------------------------------------
    Charge (ESU x 10^10)
                 4.8032
    Dipole Moment (Debye)
         X      -4.4009      Y       8.2278      Z       1.1612
       Tot       9.4029
    Quadrupole Moments (Debye-Ang)
        XX     -17.3025     XY      -6.8538     YY      -6.1666
        XZ      -1.4411     YZ       1.2980     ZZ     -21.9268

 Total job time:  1332.56s(wall), 1291.72s(cpu)
        *  Thank you very much for using Q-Chem.  Have a nice day.  *
