 Q-Chem 4.3, Q-Chem, Inc., Pleasanton, CA (2015)
 Q-Chem 4.3.0 for Intel X86 Linux

User input:
--------------------------------------------------------------
$comment
XAS calculation for valence excited states for CF4+ using cvs-adc(2) + 6-31G* basis set
job 1 - determination of HF orbitals
$end

$molecule
1 2
6  -0.615483  2.581849  -0.092475
9  0.583725  2.329011  0.006296
9  -1.138095  3.264803  0.785491
9  -1.161469  1.114559  0.460788
9  -1.134478  2.543666  -1.194165
$end

$comment
cvs-adc(2) calculation
$end

$rem
mem_total 3000
mem_static 1500
sym_ignore true
method cvs-adc(2)
basis 6-31G*
ee_singlets 20
cc_rest_occ 5                  !only excitations from the lowest N orbitals
unrestricted  true
max_scf_cycles 200
SCF_ALGORITHM = DIIS_GDM
SCF_CONVERGENCE = 7
THRESH = 10
$end
--------------------------------------------------------------

             Standard Nuclear Orientation (Angstroms)
    I     Atom           X                Y                Z
 ----------------------------------------------------------------
    1      C      -0.6154830000     2.5818490000    -0.0924750000
    2      F       0.5837250000     2.3290110000     0.0062960000
    3      F      -1.1380950000     3.2648030000     0.7854910000
    4      F      -1.1614690000     1.1145590000     0.4607880000
    5      F      -1.1344780000     2.5436660000    -1.1941650000
 ----------------------------------------------------------------

   49    -435.1466149901      7.92E-08 Convergence criterion met
 Total energy in the final basis set = -435.1466149901
  Term symbol:  2 (-) A                                     R^2 =  2.50940e-13
  Excitation energy:                                             295.435382 eV
  Term symbol:  3 (-) A                                     R^2 =  3.88130e-14
  Excitation energy:                                             297.021398 eV
  Term symbol:  4 (-) A                                     R^2 =  1.77366e-13
  Excitation energy:                                             297.676830 eV
  Term symbol:  5 (-) A                                     R^2 =  6.00579e-14
  Excitation energy:                                             304.344692 eV
  Term symbol:  6 (-) A                                     R^2 =  3.83418e-14
  Excitation energy:                                             305.270174 eV
  Term symbol:  7 (-) A                                     R^2 =  4.13774e-14
  Excitation energy:                                             305.579232 eV
  Term symbol:  8 (-) A                                     R^2 =  3.73083e-14
  Excitation energy:                                             306.366760 eV
  Term symbol:  9 (-) A                                     R^2 =  2.64739e-14
  Excitation energy:                                             307.448885 eV
  Term symbol:  10 (-) A                                    R^2 =  4.03506e-14
  Excitation energy:                                             307.741538 eV
  Excited state 10 (A)                                             [converged]
  Term symbol:  11 (-) A                                    R^2 =  3.29214e-14
  Excitation energy:                                             313.945175 eV
  Excited state 11 (A)                                             [converged]
  Term symbol:  12 (-) A                                    R^2 =  8.83838e-14
  Excitation energy:                                             315.134887 eV
  Excited state 12 (A)                                             [converged]
  Term symbol:  13 (-) A                                    R^2 =  4.06539e-14
  Excitation energy:                                             315.193645 eV
  Excited state 13 (A)                                             [converged]
  Term symbol:  14 (-) A                                    R^2 =  2.85025e-14
  Excitation energy:                                             315.370745 eV
  Excited state 14 (A)                                             [converged]
  Term symbol:  15 (-) A                                    R^2 =  4.47771e-14
  Excitation energy:                                             315.691834 eV
  Excited state 15 (A)                                             [converged]
  Term symbol:  16 (-) A                                    R^2 =  4.01009e-14
  Excitation energy:                                             315.765842 eV
  Excited state 16 (A)                                             [converged]
  Term symbol:  17 (-) A                                    R^2 =  1.53434e-13
  Excitation energy:                                             316.774316 eV
  Excited state 17 (A)                                             [converged]
  Term symbol:  18 (-) A                                    R^2 =  3.20457e-13
  Excitation energy:                                             317.255869 eV
  Excited state 18 (A)                                             [converged]
  Term symbol:  19 (-) A                                    R^2 =  2.56185e-08
  Excitation energy:                                             330.292921 eV
  Excited state 19 (A)                                             [converged]
  Term symbol:  20 (-) A                                    R^2 =  2.39210e-08
  Excitation energy:                                             330.989567 eV
  Excited state 20 (A)                                             [converged]
  Term symbol:  21 (-) A                                    R^2 =  6.46698e-07
  Excitation energy:                                             331.167348 eV

                    Orbital Energies (a.u.)
 --------------------------------------------------------------

 Alpha MOs
 -- Occupied --
-26.808 -26.709 -26.708 -26.708 -11.935  -2.159  -2.057  -2.038
 -2.034  -1.316  -1.239  -1.224  -1.218  -1.199  -1.118  -1.046
 -1.046  -1.038  -1.020  -1.013  -0.992

 Beta MOs
 -- Occupied --
-26.757 -26.709 -26.708 -26.707 -11.936  -2.149  -2.038  -2.033
 -1.875  -1.310  -1.217  -1.214  -1.207  -1.077  -1.047  -1.044
 -1.024  -1.003  -0.998  -0.992

          Ground-State Mulliken Net Atomic Charges

     Atom                 Charge (a.u.)    Spin (a.u.)
  --------------------------------------------------------
      1 C                     1.332962      -0.017156
      2 F                    -0.157704       0.003661
      3 F                    -0.156792       0.003166
      4 F                     0.121149       1.014329
      5 F                    -0.139613      -0.004000
  --------------------------------------------------------
  Sum of atomic charges =     1.000000

                    Cartesian Multipole Moments
 -----------------------------------------------------------------
    Charge (ESU x 10^10)
                 4.8032
    Dipole Moment (Debye)
         X      -3.5908      Y      10.7533      Z       0.1358
       Tot      11.3378
    Quadrupole Moments (Debye-Ang)
        XX     -18.1052     XY      -7.3731     YY       5.0543
        XZ      -0.6494     YZ      -0.5073     ZZ     -21.1858

 Total job time:  1245.95s(wall), 1214.98s(cpu)
        *  Thank you very much for using Q-Chem.  Have a nice day.  *
