 Q-Chem 4.3, Q-Chem, Inc., Pleasanton, CA (2015)
 Q-Chem 4.3.0 for Intel X86 Linux

User input:
--------------------------------------------------------------
$comment
XAS calculation for valence excited states for CF4+ using cvs-adc(2) + 6-31G* basis set
job 1 - determination of HF orbitals
$end

$molecule
1 2
6  -0.558902  2.748685  -0.166447
9  0.688152  2.603464  -0.106531
9  -1.042235  3.546661  0.676037
9  -1.511876  0.128131  0.865223
9  -1.020097  2.868405  -1.329596
$end

$comment
cvs-adc(2) calculation
$end

$rem
mem_total 3000
mem_static 1500
sym_ignore true
method cvs-adc(2)
basis 6-31G*
ee_singlets 20
cc_rest_occ 5                  !only excitations from the lowest N orbitals
unrestricted  true
max_scf_cycles 200
SCF_ALGORITHM = DIIS_GDM
SCF_CONVERGENCE = 7
THRESH = 10
$end
--------------------------------------------------------------

             Standard Nuclear Orientation (Angstroms)
    I     Atom           X                Y                Z
 ----------------------------------------------------------------
    1      C      -0.5589020000     2.7486850000    -0.1664470000
    2      F       0.6881520000     2.6034640000    -0.1065310000
    3      F      -1.0422350000     3.5466610000     0.6760370000
    4      F      -1.5118760000     0.1281310000     0.8652230000
    5      F      -1.0200970000     2.8684050000    -1.3295960000
 ----------------------------------------------------------------

   88    -435.1351204126      8.28E-08 Convergence criterion met
 Total energy in the final basis set = -435.1351204126
  Term symbol:  2 (-) A                                     R^2 =  3.58951e-14
  Excitation energy:                                             292.842764 eV
  Term symbol:  3 (-) A                                     R^2 =  7.55301e-14
  Excitation energy:                                             294.759839 eV
  Term symbol:  4 (-) A                                     R^2 =  6.76176e-14
  Excitation energy:                                             303.931214 eV
  Term symbol:  5 (-) A                                     R^2 =  8.91390e-14
  Excitation energy:                                             303.959540 eV
  Term symbol:  6 (-) A                                     R^2 =  8.30685e-14
  Excitation energy:                                             304.013516 eV
  Term symbol:  7 (-) A                                     R^2 =  8.59049e-14
  Excitation energy:                                             305.958029 eV
  Term symbol:  8 (-) A                                     R^2 =  3.97096e-14
  Excitation energy:                                             305.970618 eV
  Term symbol:  9 (-) A                                     R^2 =  6.04763e-14
  Excitation energy:                                             305.985522 eV
  Term symbol:  10 (-) A                                    R^2 =  4.18982e-14
  Excitation energy:                                             306.298168 eV
  Excited state 10 (A)                                             [converged]
  Term symbol:  11 (-) A                                    R^2 =  5.05279e-14
  Excitation energy:                                             313.875031 eV
  Excited state 11 (A)                                             [converged]
  Term symbol:  12 (-) A                                    R^2 =  7.71008e-14
  Excitation energy:                                             314.861975 eV
  Excited state 12 (A)                                             [converged]
  Term symbol:  13 (-) A                                    R^2 =  3.00260e-13
  Excitation energy:                                             314.866837 eV
  Excited state 13 (A)                                             [converged]
  Term symbol:  14 (-) A                                    R^2 =  1.20161e-13
  Excitation energy:                                             314.888157 eV
  Excited state 14 (A)                                             [converged]
  Term symbol:  15 (-) A                                    R^2 =  2.32751e-13
  Excitation energy:                                             314.989069 eV
  Excited state 15 (A)                                             [converged]
  Term symbol:  16 (-) A                                    R^2 =  3.99351e-13
  Excitation energy:                                             315.355979 eV
  Excited state 16 (A)                                             [converged]
  Term symbol:  17 (-) A                                    R^2 =  2.15806e-13
  Excitation energy:                                             315.371811 eV
  Excited state 17 (A)                                             [converged]
  Term symbol:  18 (-) A                                    R^2 =  5.47209e-13
  Excitation energy:                                             315.764553 eV
  Excited state 18 (A)                                         [not converged]
  Term symbol:  19 (-) A                                    R^2 =  7.42205e-04
  Excitation energy:                                             332.621992 eV
  Excited state 19 (A)                                         [not converged]
  Term symbol:  20 (-) A                                    R^2 =  5.27614e-05
  Excitation energy:                                             332.636113 eV
  Excited state 20 (A)                                         [not converged]
  Term symbol:  21 (-) A                                    R^2 =  1.18746e-03
  Excitation energy:                                             332.710995 eV

                    Orbital Energies (a.u.)
 --------------------------------------------------------------

 Alpha MOs
 -- Occupied --
-26.742 -26.742 -26.741 -26.601 -11.967  -2.143  -2.037  -2.036
 -1.851  -1.317  -1.218  -1.217  -1.165  -1.060  -1.059  -1.029
 -1.029  -1.018  -1.013  -0.912  -0.910

 Beta MOs
 -- Occupied --
-26.742 -26.742 -26.741 -26.553 -11.967  -2.143  -2.037  -2.036
 -1.658  -1.318  -1.218  -1.217  -1.165  -1.060  -1.059  -1.029
 -1.029  -1.013  -0.859  -0.858

          Ground-State Mulliken Net Atomic Charges

     Atom                 Charge (a.u.)    Spin (a.u.)
  --------------------------------------------------------
      1 C                     1.292340      -0.002622
      2 F                    -0.103824      -0.000146
      3 F                    -0.103948      -0.000145
      4 F                     0.018993       1.003040
      5 F                    -0.103561      -0.000126
  --------------------------------------------------------
  Sum of atomic charges =     1.000000

                    Cartesian Multipole Moments
 -----------------------------------------------------------------
    Charge (ESU x 10^10)
                 4.8032
    Dipole Moment (Debye)
         X      -2.9217      Y      12.5743      Z      -0.5709
       Tot      12.9219
    Quadrupole Moments (Debye-Ang)
        XX     -18.7180     XY      -7.3587     YY      13.3911
        XZ      -0.1244     YZ      -1.9707     ZZ     -20.8942

 Total job time:  1529.62s(wall), 1492.09s(cpu)
        *  Thank you very much for using Q-Chem.  Have a nice day.  *
