 Q-Chem 4.3, Q-Chem, Inc., Pleasanton, CA (2015)
 Q-Chem 4.3.0 for Intel X86 Linux

User input:
--------------------------------------------------------------
$comment
XAS calculation for valence excited states for CF4+ using cvs-adc(2) + 6-31G* basis set
job 1 - determination of HF orbitals
$end

$molecule
1 2
6  -0.54716  2.780847  -0.179106
9  0.687473  2.606797  -0.108165
9  -1.04059  3.548784  0.673341
9  -1.52256  0.098285  0.877308
9  -1.017795  2.87248  -1.329354
$end

$comment
cvs-adc(2) calculation
$end

$rem
mem_total 3000
mem_static 1500
sym_ignore true
method cvs-adc(2)
basis 6-31G*
ee_singlets 20
cc_rest_occ 5                  !only excitations from the lowest N orbitals
unrestricted  true
max_scf_cycles 200
SCF_ALGORITHM = DIIS_GDM
SCF_CONVERGENCE = 7
THRESH = 10
$end
--------------------------------------------------------------

             Standard Nuclear Orientation (Angstroms)
    I     Atom           X                Y                Z
 ----------------------------------------------------------------
    1      C      -0.5471600000     2.7808470000    -0.1791060000
    2      F       0.6874730000     2.6067970000    -0.1081650000
    3      F      -1.0405900000     3.5487840000     0.6733410000
    4      F      -1.5225600000     0.0982850000     0.8773080000
    5      F      -1.0177950000     2.8724800000    -1.3293540000
 ----------------------------------------------------------------

   95    -435.1445981522      7.25E-08 Convergence criterion met
 Total energy in the final basis set = -435.1445981522
  Term symbol:  2 (-) A                                     R^2 =  1.61660e-13
  Excitation energy:                                             293.112575 eV
  Term symbol:  3 (-) A                                     R^2 =  1.37566e-13
  Excitation energy:                                             295.026162 eV
  Term symbol:  4 (-) A                                     R^2 =  1.31129e-13
  Excitation energy:                                             303.903479 eV
  Term symbol:  5 (-) A                                     R^2 =  1.93881e-13
  Excitation energy:                                             304.300383 eV
  Term symbol:  6 (-) A                                     R^2 =  1.25484e-13
  Excitation energy:                                             304.337590 eV
  Term symbol:  7 (-) A                                     R^2 =  3.26706e-13
  Excitation energy:                                             305.789422 eV
  Term symbol:  8 (-) A                                     R^2 =  1.66849e-13
  Excitation energy:                                             306.331041 eV
  Term symbol:  9 (-) A                                     R^2 =  2.08154e-13
  Excitation energy:                                             306.396813 eV
  Term symbol:  10 (-) A                                    R^2 =  1.78635e-13
  Excitation energy:                                             306.527834 eV
  Excited state 10 (A)                                             [converged]
  Term symbol:  11 (-) A                                    R^2 =  2.40925e-13
  Excitation energy:                                             313.778321 eV
  Excited state 11 (A)                                             [converged]
  Term symbol:  12 (-) A                                    R^2 =  1.27923e-13
  Excitation energy:                                             314.656120 eV
  Excited state 12 (A)                                             [converged]
  Term symbol:  13 (-) A                                    R^2 =  2.47676e-13
  Excitation energy:                                             314.852128 eV
  Excited state 13 (A)                                             [converged]
  Term symbol:  14 (-) A                                    R^2 =  3.93324e-13
  Excitation energy:                                             314.896414 eV
  Excited state 14 (A)                                             [converged]
  Term symbol:  15 (-) A                                    R^2 =  2.17294e-13
  Excitation energy:                                             314.913736 eV
  Excited state 15 (A)                                             [converged]
  Term symbol:  16 (-) A                                    R^2 =  4.24010e-13
  Excitation energy:                                             315.364503 eV
  Excited state 16 (A)                                             [converged]
  Term symbol:  17 (-) A                                    R^2 =  3.04869e-13
  Excitation energy:                                             315.386204 eV
  Excited state 17 (A)                                             [converged]
  Term symbol:  18 (-) A                                    R^2 =  9.40989e-13
  Excitation energy:                                             315.677119 eV
  Excited state 18 (A)                                         [not converged]
  Term symbol:  19 (-) A                                    R^2 =  3.52221e-05
  Excitation energy:                                             332.712598 eV
  Excited state 19 (A)                                         [not converged]
  Term symbol:  20 (-) A                                    R^2 =  1.73659e-04
  Excitation energy:                                             332.717532 eV
  Excited state 20 (A)                                         [not converged]
  Term symbol:  21 (-) A                                    R^2 =  7.03330e-04
  Excitation energy:                                             332.821235 eV

                    Orbital Energies (a.u.)
 --------------------------------------------------------------

 Alpha MOs
 -- Occupied --
-26.744 -26.743 -26.743 -26.594 -11.964  -2.150  -2.044  -2.043
 -1.844  -1.320  -1.224  -1.224  -1.171  -1.063  -1.063  -1.033
 -1.033  -1.015  -1.012  -0.906  -0.904

 Beta MOs
 -- Occupied --
-26.744 -26.743 -26.743 -26.546 -11.964  -2.151  -2.044  -2.043
 -1.652  -1.320  -1.224  -1.224  -1.171  -1.063  -1.063  -1.033
 -1.033  -1.015  -0.853  -0.851

          Ground-State Mulliken Net Atomic Charges

     Atom                 Charge (a.u.)    Spin (a.u.)
  --------------------------------------------------------
      1 C                     1.280977      -0.002178
      2 F                    -0.099901      -0.000086
      3 F                    -0.099985      -0.000085
      4 F                     0.015605       1.002421
      5 F                    -0.096696      -0.000072
  --------------------------------------------------------
  Sum of atomic charges =     1.000000

                    Cartesian Multipole Moments
 -----------------------------------------------------------------
    Charge (ESU x 10^10)
                 4.8032
    Dipole Moment (Debye)
         X      -2.8440      Y      12.7980      Z      -0.6673
       Tot      13.1272
    Quadrupole Moments (Debye-Ang)
        XX     -18.7803     XY      -7.3294     YY      14.5071
        XZ      -0.0571     YZ      -2.2121     ZZ     -20.8283

 Total job time:  1315.83s(wall), 1280.86s(cpu)
        *  Thank you very much for using Q-Chem.  Have a nice day.  *
