 Q-Chem 4.3, Q-Chem, Inc., Pleasanton, CA (2015)
 Q-Chem 4.3.0 for Intel X86 Linux

User input:
--------------------------------------------------------------
$comment
XAS calculation for valence excited states for CF4+ using cvs-adc(2) + 6-31G* basis set
job 1 - determination of HF orbitals
$end

$molecule
1 2
6  -0.452108  3.007802  -0.243687
9  0.582896  2.356216  -0.009846
9  -1.128043  3.287572  0.764377
9  -1.290261  0.747537  0.614211
9  -1.118101  2.591669  -1.214822
$end

$comment
cvs-adc(2) calculation
$end

$rem
mem_total 3000
mem_static 1500
sym_ignore true
method cvs-adc(2)
basis 6-31G*
ee_singlets 20
cc_rest_occ 5                  !only excitations from the lowest N orbitals
unrestricted  true
max_scf_cycles 200
SCF_ALGORITHM = DIIS_GDM
SCF_CONVERGENCE = 7
THRESH = 10
$end
--------------------------------------------------------------

             Standard Nuclear Orientation (Angstroms)
    I     Atom           X                Y                Z
 ----------------------------------------------------------------
    1      C      -0.4521080000     3.0078020000    -0.2436870000
    2      F       0.5828960000     2.3562160000    -0.0098460000
    3      F      -1.1280430000     3.2875720000     0.7643770000
    4      F      -1.2902610000     0.7475370000     0.6142110000
    5      F      -1.1181010000     2.5916690000    -1.2148220000
 ----------------------------------------------------------------

   75    -435.1298707371      5.96E-08 Convergence criterion met
 Total energy in the final basis set = -435.1298707371
  Term symbol:  2 (-) A                                     R^2 =  7.32156e-14
  Excitation energy:                                             292.792225 eV
  Term symbol:  3 (-) A                                     R^2 =  4.51615e-14
  Excitation energy:                                             294.678982 eV
  Term symbol:  4 (-) A                                     R^2 =  6.52253e-14
  Excitation energy:                                             304.116697 eV
  Term symbol:  5 (-) A                                     R^2 =  7.81662e-14
  Excitation energy:                                             304.177796 eV
  Term symbol:  6 (-) A                                     R^2 =  1.12064e-13
  Excitation energy:                                             304.519213 eV
  Term symbol:  7 (-) A                                     R^2 =  1.14157e-13
  Excitation energy:                                             304.570623 eV
  Term symbol:  8 (-) A                                     R^2 =  5.14212e-14
  Excitation energy:                                             306.145185 eV
  Term symbol:  9 (-) A                                     R^2 =  5.79570e-14
  Excitation energy:                                             306.216733 eV
  Term symbol:  10 (-) A                                    R^2 =  9.30718e-14
  Excitation energy:                                             306.550135 eV
  Excited state 10 (A)                                             [converged]
  Term symbol:  11 (-) A                                    R^2 =  1.38296e-13
  Excitation energy:                                             313.387280 eV
  Excited state 11 (A)                                             [converged]
  Term symbol:  12 (-) A                                    R^2 =  1.36494e-13
  Excitation energy:                                             314.703390 eV
  Excited state 12 (A)                                             [converged]
  Term symbol:  13 (-) A                                    R^2 =  2.39208e-13
  Excitation energy:                                             314.704578 eV
  Excited state 13 (A)                                             [converged]
  Term symbol:  14 (-) A                                    R^2 =  4.03160e-13
  Excitation energy:                                             314.790203 eV
  Excited state 14 (A)                                             [converged]
  Term symbol:  15 (-) A                                    R^2 =  5.50718e-13
  Excitation energy:                                             315.202833 eV
  Excited state 15 (A)                                             [converged]
  Term symbol:  16 (-) A                                    R^2 =  3.04422e-13
  Excitation energy:                                             315.208203 eV
  Excited state 16 (A)                                             [converged]
  Term symbol:  17 (-) A                                    R^2 =  3.11810e-13
  Excitation energy:                                             316.784352 eV
  Excited state 17 (A)                                             [converged]
  Term symbol:  18 (-) A                                    R^2 =  1.01080e-11
  Excitation energy:                                             317.429696 eV
  Excited state 18 (A)                                         [not converged]
  Term symbol:  19 (-) A                                    R^2 =  7.76808e-04
  Excitation energy:                                             332.461168 eV
  Excited state 19 (A)                                         [not converged]
  Term symbol:  20 (-) A                                    R^2 =  7.56263e-03
  Excitation energy:                                             332.469904 eV
  Excited state 20 (A)                                         [not converged]
  Term symbol:  21 (-) A                                    R^2 =  2.60265e-03
  Excitation energy:                                             332.547632 eV

                    Orbital Energies (a.u.)
 --------------------------------------------------------------

 Alpha MOs
 -- Occupied --
-26.740 -26.740 -26.738 -26.611 -11.961  -2.151  -2.041  -2.038
 -1.865  -1.318  -1.222  -1.221  -1.172  -1.063  -1.061  -1.039
 -1.028  -1.019  -1.011  -0.924  -0.921

 Beta MOs
 -- Occupied --
-26.740 -26.739 -26.738 -26.563 -11.961  -2.151  -2.041  -2.038
 -1.672  -1.318  -1.222  -1.221  -1.171  -1.061  -1.061  -1.029
 -1.028  -1.011  -0.871  -0.869

          Ground-State Mulliken Net Atomic Charges

     Atom                 Charge (a.u.)    Spin (a.u.)
  --------------------------------------------------------
      1 C                     1.315414      -0.005489
      2 F                    -0.110764       0.000860
      3 F                    -0.111014       0.000822
      4 F                     0.019007       1.003659
      5 F                    -0.112643       0.000148
  --------------------------------------------------------
  Sum of atomic charges =     1.000000

                    Cartesian Multipole Moments
 -----------------------------------------------------------------
    Charge (ESU x 10^10)
                 4.8032
    Dipole Moment (Debye)
         X      -2.1418      Y      14.4981      Z      -1.1696
       Tot      14.7020
    Quadrupole Moments (Debye-Ang)
        XX     -19.5562     XY      -6.2043     YY      24.1207
        XZ       0.0728     YZ      -3.9520     ZZ     -20.7054

 Total job time:  1545.92s(wall), 1474.52s(cpu)
        *  Thank you very much for using Q-Chem.  Have a nice day.  *
