 Q-Chem 4.3, Q-Chem, Inc., Pleasanton, CA (2015)
 Q-Chem 4.3.0 for Intel X86 Linux

User input:
--------------------------------------------------------------
$comment
XAS calculation for valence excited states for CF4+ using cvs-adc(2) + 6-31G* basis set
job 1 - determination of HF orbitals
$end

$molecule
1 2
6  -0.4834  2.922318  -0.210208
9  0.57913  2.314601  0.007756
9  -1.146271  3.253258  0.788598
9  -1.226765  0.926293  0.540978
9  -1.139839  2.542835  -1.204558
$end

$comment
cvs-adc(2) calculation
$end

$rem
mem_total 3000
mem_static 1500
sym_ignore true
method cvs-adc(2)
basis 6-31G*
ee_singlets 20
cc_rest_occ 5                  !only excitations from the lowest N orbitals
unrestricted  true
max_scf_cycles 200
SCF_ALGORITHM = DIIS_GDM
SCF_CONVERGENCE = 7
THRESH = 10
$end
--------------------------------------------------------------

             Standard Nuclear Orientation (Angstroms)
    I     Atom           X                Y                Z
 ----------------------------------------------------------------
    1      C      -0.4834000000     2.9223180000    -0.2102080000
    2      F       0.5791300000     2.3146010000     0.0077560000
    3      F      -1.1462710000     3.2532580000     0.7885980000
    4      F      -1.2267650000     0.9262930000     0.5409780000
    5      F      -1.1398390000     2.5428350000    -1.2045580000
 ----------------------------------------------------------------

   63    -435.1339360066      7.25E-08 Convergence criterion met
 Total energy in the final basis set = -435.1339360066
  Term symbol:  2 (-) A                                     R^2 =  8.03350e-14
  Excitation energy:                                             293.140501 eV
  Term symbol:  3 (-) A                                     R^2 =  4.45725e-14
  Excitation energy:                                             295.037053 eV
  Term symbol:  4 (-) A                                     R^2 =  1.37290e-13
  Excitation energy:                                             303.328966 eV
  Term symbol:  5 (-) A                                     R^2 =  3.98084e-13
  Excitation energy:                                             304.015562 eV
  Term symbol:  6 (-) A                                     R^2 =  6.32689e-13
  Excitation energy:                                             304.345234 eV
  Term symbol:  7 (-) A                                     R^2 =  4.30386e-13
  Excitation energy:                                             304.475537 eV
  Term symbol:  8 (-) A                                     R^2 =  1.41888e-13
  Excitation energy:                                             306.064748 eV
  Term symbol:  9 (-) A                                     R^2 =  2.16322e-13
  Excitation energy:                                             306.408257 eV
  Term symbol:  10 (-) A                                    R^2 =  2.41510e-13
  Excitation energy:                                             306.542240 eV
  Excited state 10 (A)                                             [converged]
  Term symbol:  11 (-) A                                    R^2 =  3.14215e-13
  Excitation energy:                                             313.362559 eV
  Excited state 11 (A)                                             [converged]
  Term symbol:  12 (-) A                                    R^2 =  1.51657e-13
  Excitation energy:                                             314.765694 eV
  Excited state 12 (A)                                             [converged]
  Term symbol:  13 (-) A                                    R^2 =  2.03298e-13
  Excitation energy:                                             314.900106 eV
  Excited state 13 (A)                                             [converged]
  Term symbol:  14 (-) A                                    R^2 =  2.08305e-13
  Excitation energy:                                             314.901934 eV
  Excited state 14 (A)                                             [converged]
  Term symbol:  15 (-) A                                    R^2 =  2.69626e-13
  Excitation energy:                                             315.368250 eV
  Excited state 15 (A)                                             [converged]
  Term symbol:  16 (-) A                                    R^2 =  6.76707e-13
  Excitation energy:                                             315.382328 eV
  Excited state 16 (A)                                             [converged]
  Term symbol:  17 (-) A                                    R^2 =  2.21097e-11
  Excitation energy:                                             318.332747 eV
  Excited state 17 (A)                                             [converged]
  Term symbol:  18 (-) A                                    R^2 =  1.70241e-12
  Excitation energy:                                             318.985292 eV
  Excited state 18 (A)                                         [not converged]
  Term symbol:  19 (-) A                                    R^2 =  1.18839e-05
  Excitation energy:                                             331.967886 eV
  Excited state 19 (A)                                         [not converged]
  Term symbol:  20 (-) A                                    R^2 =  3.92814e-05
  Excitation energy:                                             332.105269 eV
  Excited state 20 (A)                                         [not converged]
  Term symbol:  21 (-) A                                    R^2 =  1.37405e-03
  Excitation energy:                                             332.157905 eV

                    Orbital Energies (a.u.)
 --------------------------------------------------------------

 Alpha MOs
 -- Occupied --
-26.740 -26.739 -26.735 -26.636 -11.959  -2.149  -2.044  -2.039
 -1.894  -1.317  -1.222  -1.221  -1.176  -1.075  -1.061  -1.054
 -1.034  -1.023  -1.012  -0.947  -0.944

 Beta MOs
 -- Occupied --
-26.739 -26.739 -26.735 -26.587 -11.959  -2.149  -2.044  -2.039
 -1.702  -1.317  -1.222  -1.221  -1.173  -1.060  -1.060  -1.034
 -1.033  -1.012  -0.895  -0.893

          Ground-State Mulliken Net Atomic Charges

     Atom                 Charge (a.u.)    Spin (a.u.)
  --------------------------------------------------------
      1 C                     1.348628      -0.006336
      2 F                    -0.122297       0.001552
      3 F                    -0.122381       0.001422
      4 F                     0.022948       1.003779
      5 F                    -0.126898      -0.000417
  --------------------------------------------------------
  Sum of atomic charges =     1.000000

                    Cartesian Multipole Moments
 -----------------------------------------------------------------
    Charge (ESU x 10^10)
                 4.8032
    Dipole Moment (Debye)
         X      -2.3324      Y      13.9683      Z      -0.9533
       Tot      14.1937
    Quadrupole Moments (Debye-Ang)
        XX     -19.3780     XY      -6.5347     YY      20.9434
        XZ       0.0206     YZ      -3.1782     ZZ     -20.8085

 Total job time:  1766.01s(wall), 1698.80s(cpu)
        *  Thank you very much for using Q-Chem.  Have a nice day.  *
