 Q-Chem 4.3, Q-Chem, Inc., Pleasanton, CA (2015)
 Q-Chem 4.3.0 for Intel X86 Linux

User input:
--------------------------------------------------------------
$comment
XAS calculation for valence excited states for CF4+ using cvs-adc(2) + 6-31G* basis set
job 1 - determination of HF orbitals
$end

$molecule
1 2
6  -0.469676  2.967592  -0.233795
9  0.586927  2.3976  -0.025856
9  -1.10904  3.32102  0.741507
9  -1.323633  0.65408  0.652195
9  -1.096668  2.635692  -1.220175
$end

$comment
cvs-adc(2) calculation
$end

$rem
mem_total 3000
mem_static 1500
sym_ignore true
method cvs-adc(2)
basis 6-31G*
ee_singlets 20
cc_rest_occ 5                  !only excitations from the lowest N orbitals
unrestricted  true
max_scf_cycles 200
SCF_ALGORITHM = DIIS_GDM
SCF_CONVERGENCE = 7
THRESH = 10
$end
--------------------------------------------------------------

             Standard Nuclear Orientation (Angstroms)
    I     Atom           X                Y                Z
 ----------------------------------------------------------------
    1      C      -0.4696760000     2.9675920000    -0.2337950000
    2      F       0.5869270000     2.3976000000    -0.0258560000
    3      F      -1.1090400000     3.3210200000     0.7415070000
    4      F      -1.3236330000     0.6540800000     0.6521950000
    5      F      -1.0966680000     2.6356920000    -1.2201750000
 ----------------------------------------------------------------

   76    -435.1560488569      4.81E-08 Convergence criterion met
 Total energy in the final basis set = -435.1560488569
  Term symbol:  2 (-) A                                     R^2 =  4.05033e-14
  Excitation energy:                                             293.608884 eV
  Term symbol:  3 (-) A                                     R^2 =  6.09104e-14
  Excitation energy:                                             295.501586 eV
  Term symbol:  4 (-) A                                     R^2 =  1.02760e-13
  Excitation energy:                                             304.400255 eV
  Term symbol:  5 (-) A                                     R^2 =  5.28124e-14
  Excitation energy:                                             304.671888 eV
  Term symbol:  6 (-) A                                     R^2 =  5.94080e-14
  Excitation energy:                                             305.329332 eV
  Term symbol:  7 (-) A                                     R^2 =  5.64515e-14
  Excitation energy:                                             305.426688 eV
  Term symbol:  8 (-) A                                     R^2 =  9.49178e-14
  Excitation energy:                                             306.151540 eV
  Term symbol:  9 (-) A                                     R^2 =  9.26140e-14
  Excitation energy:                                             307.438075 eV
  Term symbol:  10 (-) A                                    R^2 =  9.21429e-14
  Excitation energy:                                             307.533834 eV
  Excited state 10 (A)                                             [converged]
  Term symbol:  11 (-) A                                    R^2 =  2.25865e-13
  Excitation energy:                                             313.356034 eV
  Excited state 11 (A)                                             [converged]
  Term symbol:  12 (-) A                                    R^2 =  2.03340e-13
  Excitation energy:                                             314.745688 eV
  Excited state 12 (A)                                             [converged]
  Term symbol:  13 (-) A                                    R^2 =  2.65491e-13
  Excitation energy:                                             314.763956 eV
  Excited state 13 (A)                                             [converged]
  Term symbol:  14 (-) A                                    R^2 =  1.81015e-13
  Excitation energy:                                             314.797130 eV
  Excited state 14 (A)                                             [converged]
  Term symbol:  15 (-) A                                    R^2 =  1.88112e-13
  Excitation energy:                                             315.193842 eV
  Excited state 15 (A)                                             [converged]
  Term symbol:  16 (-) A                                    R^2 =  1.66891e-13
  Excitation energy:                                             315.216515 eV
  Excited state 16 (A)                                             [converged]
  Term symbol:  17 (-) A                                    R^2 =  1.64035e-13
  Excitation energy:                                             315.825408 eV
  Excited state 17 (A)                                             [converged]
  Term symbol:  18 (-) A                                    R^2 =  6.35944e-13
  Excitation energy:                                             316.682377 eV
  Excited state 18 (A)                                         [not converged]
  Term symbol:  19 (-) A                                    R^2 =  2.50525e-05
  Excitation energy:                                             332.600144 eV
  Excited state 19 (A)                                         [not converged]
  Term symbol:  20 (-) A                                    R^2 =  4.76802e-04
  Excitation energy:                                             332.629019 eV
  Excited state 20 (A)                                         [not converged]
  Term symbol:  21 (-) A                                    R^2 =  1.55249e-04
  Excitation energy:                                             332.761425 eV

                    Orbital Energies (a.u.)
 --------------------------------------------------------------

 Alpha MOs
 -- Occupied --
-26.743 -26.742 -26.742 -26.611 -11.951  -2.174  -2.061  -2.059
 -1.863  -1.323  -1.239  -1.239  -1.189  -1.071  -1.071  -1.043
 -1.040  -1.025  -1.017  -0.924  -0.921

 Beta MOs
 -- Occupied --
-26.743 -26.742 -26.742 -26.563 -11.951  -2.174  -2.061  -2.059
 -1.671  -1.323  -1.239  -1.239  -1.188  -1.071  -1.070  -1.040
 -1.039  -1.017  -0.871  -0.869

          Ground-State Mulliken Net Atomic Charges

     Atom                 Charge (a.u.)    Spin (a.u.)
  --------------------------------------------------------
      1 C                     1.245641      -0.005242
      2 F                    -0.091294       0.000501
      3 F                    -0.091377       0.000485
      4 F                     0.021960       1.004097
      5 F                    -0.084929       0.000158
  --------------------------------------------------------
  Sum of atomic charges =     1.000000

                    Cartesian Multipole Moments
 -----------------------------------------------------------------
    Charge (ESU x 10^10)
                 4.8032
    Dipole Moment (Debye)
         X      -2.2817      Y      14.1931      Z      -1.1088
       Tot      14.4180
    Quadrupole Moments (Debye-Ang)
        XX     -19.3088     XY      -6.4843     YY      22.4123
        XZ       0.0875     YZ      -3.6958     ZZ     -20.5893

 Total job time:  1531.29s(wall), 1503.94s(cpu)
        *  Thank you very much for using Q-Chem.  Have a nice day.  *
