 Q-Chem 4.3, Q-Chem, Inc., Pleasanton, CA (2015)
 Q-Chem 4.3.0 for Intel X86 Linux

User input:
--------------------------------------------------------------
$comment
XAS calculation for valence excited states for CF4+ using cvs-adc(2) + 6-31G* basis set
job 1 - determination of HF orbitals
$end

$molecule
1 2
6  -0.581141  2.684301  -0.138365
9  0.677012  2.579197  -0.096198
9  -1.049842  3.520231  0.684817
9  -1.468674  0.248813  0.816359
9  -1.030504  2.839087  -1.317584
$end

$comment
cvs-adc(2) calculation
$end

$rem
mem_total 3000
mem_static 1500
sym_ignore true
method cvs-adc(2)
basis 6-31G*
ee_singlets 20
cc_rest_occ 5                  !only excitations from the lowest N orbitals
unrestricted  true
max_scf_cycles 200
SCF_ALGORITHM = DIIS_GDM
SCF_CONVERGENCE = 7
THRESH = 10
$end
--------------------------------------------------------------

             Standard Nuclear Orientation (Angstroms)
    I     Atom           X                Y                Z
 ----------------------------------------------------------------
    1      C      -0.5811410000     2.6843010000    -0.1383650000
    2      F       0.6770120000     2.5791970000    -0.0961980000
    3      F      -1.0498420000     3.5202310000     0.6848170000
    4      F      -1.4686740000     0.2488130000     0.8163590000
    5      F      -1.0305040000     2.8390870000    -1.3175840000
 ----------------------------------------------------------------

   81    -435.1229368197      8.92E-08 Convergence criterion met
 Total energy in the final basis set = -435.1229368197
  Term symbol:  2 (-) A                                     R^2 =  8.57654e-14
  Excitation energy:                                             292.531224 eV
  Term symbol:  3 (-) A                                     R^2 =  5.29119e-14
  Excitation energy:                                             294.464709 eV
  Term symbol:  4 (-) A                                     R^2 =  5.36154e-13
  Excitation energy:                                             303.439162 eV
  Term symbol:  5 (-) A                                     R^2 =  3.45329e-13
  Excitation energy:                                             303.627746 eV
  Term symbol:  6 (-) A                                     R^2 =  2.22881e-13
  Excitation energy:                                             304.264462 eV
  Term symbol:  7 (-) A                                     R^2 =  5.72856e-13
  Excitation energy:                                             305.332370 eV
  Term symbol:  8 (-) A                                     R^2 =  5.79734e-13
  Excitation energy:                                             305.437540 eV
  Term symbol:  9 (-) A                                     R^2 =  5.48123e-13
  Excitation energy:                                             305.685730 eV
  Term symbol:  10 (-) A                                    R^2 =  3.57786e-13
  Excitation energy:                                             306.328484 eV
  Excited state 10 (A)                                             [converged]
  Term symbol:  11 (-) A                                    R^2 =  3.02840e-13
  Excitation energy:                                             314.243930 eV
  Excited state 11 (A)                                             [converged]
  Term symbol:  12 (-) A                                    R^2 =  5.97065e-13
  Excitation energy:                                             314.802068 eV
  Excited state 12 (A)                                             [converged]
  Term symbol:  13 (-) A                                    R^2 =  3.54426e-13
  Excitation energy:                                             314.804915 eV
  Excited state 13 (A)                                             [converged]
  Term symbol:  14 (-) A                                    R^2 =  4.08199e-13
  Excitation energy:                                             315.164401 eV
  Excited state 14 (A)                                             [converged]
  Term symbol:  15 (-) A                                    R^2 =  5.16651e-13
  Excitation energy:                                             315.298040 eV
  Excited state 15 (A)                                             [converged]
  Term symbol:  16 (-) A                                    R^2 =  9.02970e-13
  Excitation energy:                                             315.323535 eV
  Excited state 16 (A)                                             [converged]
  Term symbol:  17 (-) A                                    R^2 =  5.96822e-13
  Excitation energy:                                             315.462355 eV
  Excited state 17 (A)                                             [converged]
  Term symbol:  18 (-) A                                    R^2 =  4.89994e-13
  Excitation energy:                                             315.873296 eV
  Excited state 18 (A)                                         [not converged]
  Term symbol:  19 (-) A                                    R^2 =  2.08884e-04
  Excitation energy:                                             332.455952 eV
  Excited state 19 (A)                                         [not converged]
  Term symbol:  20 (-) A                                    R^2 =  6.39637e-06
  Excitation energy:                                             332.495262 eV
  Excited state 20 (A)                                         [not converged]
  Term symbol:  21 (-) A                                    R^2 =  2.92569e-04
  Excitation energy:                                             332.527972 eV

                    Orbital Energies (a.u.)
 --------------------------------------------------------------

 Alpha MOs
 -- Occupied --
-26.738 -26.738 -26.735 -26.625 -11.968  -2.135  -2.030  -2.024
 -1.873  -1.314  -1.210  -1.209  -1.158  -1.055  -1.053  -1.040
 -1.023  -1.021  -1.007  -0.934  -0.931

 Beta MOs
 -- Occupied --
-26.738 -26.738 -26.735 -26.576 -11.968  -2.136  -2.030  -2.024
 -1.679  -1.314  -1.210  -1.209  -1.158  -1.055  -1.053  -1.024
 -1.021  -1.007  -0.879  -0.879

          Ground-State Mulliken Net Atomic Charges

     Atom                 Charge (a.u.)    Spin (a.u.)
  --------------------------------------------------------
      1 C                     1.296315      -0.004375
      2 F                    -0.106973      -0.000396
      3 F                    -0.107058      -0.000394
      4 F                     0.032211       1.005528
      5 F                    -0.114494      -0.000363
  --------------------------------------------------------
  Sum of atomic charges =     1.000000

                    Cartesian Multipole Moments
 -----------------------------------------------------------------
    Charge (ESU x 10^10)
                 4.8032
    Dipole Moment (Debye)
         X      -3.0771      Y      12.0990      Z      -0.3439
       Tot      12.4889
    Quadrupole Moments (Debye-Ang)
        XX     -18.5557     XY      -7.3470     YY      11.1802
        XZ      -0.3031     YZ      -1.4550     ZZ     -20.9981

 Total job time:  1547.85s(wall), 1500.75s(cpu)
        *  Thank you very much for using Q-Chem.  Have a nice day.  *
