 Q-Chem 4.3, Q-Chem, Inc., Pleasanton, CA (2015)
 Q-Chem 4.3.0 for Intel X86 Linux

User input:
--------------------------------------------------------------
$comment
XAS calculation for valence excited states for CF4+ using cvs-adc(2) + 6-31G* basis set
job 1 - determination of HF orbitals
$end

$molecule
1 2
6  -0.461807  2.986268  -0.238958
9  0.585109  2.382646  -0.020107
9  -1.115804  3.308696  0.749521
9  -1.31245  0.68537  0.639492
9  -1.104239  2.619884  -1.217974
$end

$comment
cvs-adc(2) calculation
$end

$rem
mem_total 3000
mem_static 1500
sym_ignore true
method cvs-adc(2)
basis 6-31G*
ee_singlets 20
cc_rest_occ 5                  !only excitations from the lowest N orbitals
unrestricted  true
max_scf_cycles 200
SCF_ALGORITHM = DIIS_GDM
SCF_CONVERGENCE = 7
THRESH = 10
$end
--------------------------------------------------------------

             Standard Nuclear Orientation (Angstroms)
    I     Atom           X                Y                Z
 ----------------------------------------------------------------
    1      C      -0.4618070000     2.9862680000    -0.2389580000
    2      F       0.5851090000     2.3826460000    -0.0201070000
    3      F      -1.1158040000     3.3086960000     0.7495210000
    4      F      -1.3124500000     0.6853700000     0.6394920000
    5      F      -1.1042390000     2.6198840000    -1.2179740000
 ----------------------------------------------------------------

   76    -435.1469461645      9.86E-08 Convergence criterion met
 Total energy in the final basis set = -435.1469461645
  Term symbol:  2 (-) A                                     R^2 =  5.19941e-14
  Excitation energy:                                             293.273215 eV
  Term symbol:  3 (-) A                                     R^2 =  8.34765e-14
  Excitation energy:                                             295.162723 eV
  Term symbol:  4 (-) A                                     R^2 =  1.03386e-13
  Excitation energy:                                             304.506781 eV
  Term symbol:  5 (-) A                                     R^2 =  5.19805e-14
  Excitation energy:                                             304.658308 eV
  Term symbol:  6 (-) A                                     R^2 =  2.95349e-14
  Excitation energy:                                             304.898478 eV
  Term symbol:  7 (-) A                                     R^2 =  4.38383e-14
  Excitation energy:                                             304.931112 eV
  Term symbol:  8 (-) A                                     R^2 =  2.36240e-13
  Excitation energy:                                             306.368966 eV
  Term symbol:  9 (-) A                                     R^2 =  8.12078e-14
  Excitation energy:                                             306.966963 eV
  Term symbol:  10 (-) A                                    R^2 =  5.21791e-14
  Excitation energy:                                             307.007015 eV
  Excited state 10 (A)                                             [converged]
  Term symbol:  11 (-) A                                    R^2 =  4.49998e-13
  Excitation energy:                                             313.363013 eV
  Excited state 11 (A)                                             [converged]
  Term symbol:  12 (-) A                                    R^2 =  2.99117e-13
  Excitation energy:                                             314.721769 eV
  Excited state 12 (A)                                             [converged]
  Term symbol:  13 (-) A                                    R^2 =  1.93237e-13
  Excitation energy:                                             314.734126 eV
  Excited state 13 (A)                                             [converged]
  Term symbol:  14 (-) A                                    R^2 =  2.26645e-13
  Excitation energy:                                             314.798779 eV
  Excited state 14 (A)                                             [converged]
  Term symbol:  15 (-) A                                    R^2 =  2.30309e-13
  Excitation energy:                                             315.193008 eV
  Excited state 15 (A)                                             [converged]
  Term symbol:  16 (-) A                                    R^2 =  3.82472e-13
  Excitation energy:                                             315.205303 eV
  Excited state 16 (A)                                             [converged]
  Term symbol:  17 (-) A                                    R^2 =  3.55717e-13
  Excitation energy:                                             316.140830 eV
  Excited state 17 (A)                                             [converged]
  Term symbol:  18 (-) A                                    R^2 =  7.24880e-12
  Excitation energy:                                             316.906768 eV
  Excited state 18 (A)                                         [not converged]
  Term symbol:  19 (-) A                                    R^2 =  6.35215e-05
  Excitation energy:                                             332.620122 eV
  Excited state 19 (A)                                         [not converged]
  Term symbol:  20 (-) A                                    R^2 =  2.18075e-05
  Excitation energy:                                             332.634370 eV
  Excited state 20 (A)                                         [not converged]
  Term symbol:  21 (-) A                                    R^2 =  2.09752e-04
  Excitation energy:                                             332.742252 eV

                    Orbital Energies (a.u.)
 --------------------------------------------------------------

 Alpha MOs
 -- Occupied --
-26.741 -26.741 -26.741 -26.610 -11.955  -2.166  -2.053  -2.052
 -1.863  -1.322  -1.233  -1.233  -1.182  -1.068  -1.067  -1.040
 -1.035  -1.023  -1.014  -0.923  -0.920

 Beta MOs
 -- Occupied --
-26.741 -26.741 -26.741 -26.562 -11.955  -2.166  -2.053  -2.052
 -1.670  -1.322  -1.233  -1.233  -1.182  -1.067  -1.067  -1.035
 -1.035  -1.014  -0.870  -0.868

          Ground-State Mulliken Net Atomic Charges

     Atom                 Charge (a.u.)    Spin (a.u.)
  --------------------------------------------------------
      1 C                     1.271239      -0.005288
      2 F                    -0.098448       0.000609
      3 F                    -0.098562       0.000587
      4 F                     0.020695       1.003929
      5 F                    -0.094925       0.000163
  --------------------------------------------------------
  Sum of atomic charges =     1.000000

                    Cartesian Multipole Moments
 -----------------------------------------------------------------
    Charge (ESU x 10^10)
                 4.8032
    Dipole Moment (Debye)
         X      -2.2211      Y      14.3317      Z      -1.1422
       Tot      14.5477
    Quadrupole Moments (Debye-Ang)
        XX     -19.4102     XY      -6.3680     YY      23.1922
        XZ       0.0861     YZ      -3.8279     ZZ     -20.6283

 Total job time:  1249.90s(wall), 1208.23s(cpu)
        *  Thank you very much for using Q-Chem.  Have a nice day.  *
