 Q-Chem 4.3, Q-Chem, Inc., Pleasanton, CA (2015)
 Q-Chem 4.3.0 for Intel X86 Linux

User input:
--------------------------------------------------------------
$comment
XAS calculation for valence excited states for CF4+ using cvs-adc(2) + 6-31G* basis set
job 1 - determination of HF orbitals
$end

$molecule
1 2
6  -0.496843  2.888097  -0.198647
9  0.578496  2.31319  0.008759
9  -1.146447  3.251493  0.789385
9  -1.216987  0.954013  0.52949
9  -1.140317  2.539907  -1.202162
$end

$comment
cvs-adc(2) calculation
$end

$rem
mem_total 3000
mem_static 1500
sym_ignore true
method cvs-adc(2)
basis 6-31G*
ee_singlets 20
cc_rest_occ 5                  !only excitations from the lowest N orbitals
unrestricted  true
max_scf_cycles 200
SCF_ALGORITHM = DIIS_GDM
SCF_CONVERGENCE = 7
THRESH = 10
$end
--------------------------------------------------------------

             Standard Nuclear Orientation (Angstroms)
    I     Atom           X                Y                Z
 ----------------------------------------------------------------
    1      C      -0.4968430000     2.8880970000    -0.1986470000
    2      F       0.5784960000     2.3131900000     0.0087590000
    3      F      -1.1464470000     3.2514930000     0.7893850000
    4      F      -1.2169870000     0.9540130000     0.5294900000
    5      F      -1.1403170000     2.5399070000    -1.2021620000
 ----------------------------------------------------------------

   53    -435.1406403568      7.50E-08 Convergence criterion met
 Total energy in the final basis set = -435.1406403568
  Term symbol:  2 (-) A                                     R^2 =  3.85567e-14
  Excitation energy:                                             293.426516 eV
  Term symbol:  3 (-) A                                     R^2 =  5.60462e-14
  Excitation energy:                                             295.330962 eV
  Term symbol:  4 (-) A                                     R^2 =  7.71833e-14
  Excitation energy:                                             302.939863 eV
  Term symbol:  5 (-) A                                     R^2 =  5.96995e-14
  Excitation energy:                                             303.921202 eV
  Term symbol:  6 (-) A                                     R^2 =  9.37700e-14
  Excitation energy:                                             304.701913 eV
  Term symbol:  7 (-) A                                     R^2 =  1.75560e-13
  Excitation energy:                                             304.800739 eV
  Term symbol:  8 (-) A                                     R^2 =  5.81360e-14
  Excitation energy:                                             305.927179 eV
  Term symbol:  9 (-) A                                     R^2 =  1.01489e-13
  Excitation energy:                                             306.797620 eV
  Term symbol:  10 (-) A                                    R^2 =  7.67293e-14
  Excitation energy:                                             306.898285 eV
  Excited state 10 (A)                                             [converged]
  Term symbol:  11 (-) A                                    R^2 =  5.48650e-13
  Excitation energy:                                             313.360809 eV
  Excited state 11 (A)                                             [converged]
  Term symbol:  12 (-) A                                    R^2 =  1.08335e-13
  Excitation energy:                                             314.776596 eV
  Excited state 12 (A)                                             [converged]
  Term symbol:  13 (-) A                                    R^2 =  2.13396e-13
  Excitation energy:                                             314.975034 eV
  Excited state 13 (A)                                             [converged]
  Term symbol:  14 (-) A                                    R^2 =  2.60395e-13
  Excitation energy:                                             314.985614 eV
  Excited state 14 (A)                                             [converged]
  Term symbol:  15 (-) A                                    R^2 =  6.24952e-13
  Excitation energy:                                             315.432255 eV
  Excited state 15 (A)                                             [converged]
  Term symbol:  16 (-) A                                    R^2 =  2.48471e-13
  Excitation energy:                                             315.439581 eV
  Excited state 16 (A)                                             [converged]
  Term symbol:  17 (-) A                                    R^2 =  8.42989e-12
  Excitation energy:                                             318.497686 eV
  Excited state 17 (A)                                             [converged]
  Term symbol:  18 (-) A                                    R^2 =  9.01873e-12
  Excitation energy:                                             319.165769 eV
  Excited state 18 (A)                                         [not converged]
  Term symbol:  19 (-) A                                    R^2 =  2.19496e-06
  Excitation energy:                                             331.800342 eV
  Excited state 19 (A)                                         [not converged]
  Term symbol:  20 (-) A                                    R^2 =  1.50692e-06
  Excitation energy:                                             331.952290 eV
  Excited state 20 (A)                                         [not converged]
  Term symbol:  21 (-) A                                    R^2 =  1.15000e-05
  Excitation energy:                                             332.141523 eV

                    Orbital Energies (a.u.)
 --------------------------------------------------------------

 Alpha MOs
 -- Occupied --
-26.739 -26.739 -26.736 -26.645 -11.957  -2.154  -2.049  -2.044
 -1.904  -1.318  -1.226  -1.225  -1.181  -1.082  -1.063  -1.058
 -1.038  -1.026  -1.013  -0.955  -0.952

 Beta MOs
 -- Occupied --
-26.739 -26.739 -26.736 -26.596 -11.957  -2.153  -2.048  -2.044
 -1.713  -1.318  -1.226  -1.225  -1.178  -1.062  -1.062  -1.037
 -1.037  -1.013  -0.903  -0.902

          Ground-State Mulliken Net Atomic Charges

     Atom                 Charge (a.u.)    Spin (a.u.)
  --------------------------------------------------------
      1 C                     1.341926      -0.006459
      2 F                    -0.121945       0.001612
      3 F                    -0.121845       0.001452
      4 F                     0.025972       1.004042
      5 F                    -0.124109      -0.000647
  --------------------------------------------------------
  Sum of atomic charges =     1.000000

                    Cartesian Multipole Moments
 -----------------------------------------------------------------
    Charge (ESU x 10^10)
                 4.8032
    Dipole Moment (Debye)
         X      -2.4302      Y      13.7266      Z      -0.8770
       Tot      13.9676
    Quadrupole Moments (Debye-Ang)
        XX     -19.2600     XY      -6.6867     YY      19.5885
        XZ       0.0034     YZ      -2.9191     ZZ     -20.8104

 Total job time:  1520.63s(wall), 1479.06s(cpu)
        *  Thank you very much for using Q-Chem.  Have a nice day.  *
