 Q-Chem 4.3, Q-Chem, Inc., Pleasanton, CA (2015)
 Q-Chem 4.3.0 for Intel X86 Linux

User input:
--------------------------------------------------------------
$comment
XAS calculation for valence excited states for CF4+ using cvs-adc(2) + 6-31G* basis set
job 1 - determination of HF orbitals
$end

$molecule
1 2
6  -0.500858  2.890421  -0.209517
9  0.597489  2.446  -0.044385
9  -1.08864  3.364242  0.718429
9  -1.357353  0.559806  0.690422
9  -1.074214  2.687088  -1.232128
$end

$comment
cvs-adc(2) calculation
$end

$rem
mem_total 3000
mem_static 1500
sym_ignore true
method cvs-adc(2)
basis 6-31G*
ee_singlets 20
cc_rest_occ 5                  !only excitations from the lowest N orbitals
unrestricted  true
max_scf_cycles 200
SCF_ALGORITHM = DIIS_GDM
SCF_CONVERGENCE = 7
THRESH = 10
$end
--------------------------------------------------------------

             Standard Nuclear Orientation (Angstroms)
    I     Atom           X                Y                Z
 ----------------------------------------------------------------
    1      C      -0.5008580000     2.8904210000    -0.2095170000
    2      F       0.5974890000     2.4460000000    -0.0443850000
    3      F      -1.0886400000     3.3642420000     0.7184290000
    4      F      -1.3573530000     0.5598060000     0.6904220000
    5      F      -1.0742140000     2.6870880000    -1.2321280000
 ----------------------------------------------------------------

   77    -435.1753745810      4.21E-08 Convergence criterion met
 Total energy in the final basis set = -435.1753745810
  Term symbol:  2 (-) A                                     R^2 =  4.52838e-14
  Excitation energy:                                             294.602800 eV
  Term symbol:  3 (-) A                                     R^2 =  8.18574e-14
  Excitation energy:                                             296.525881 eV
  Term symbol:  4 (-) A                                     R^2 =  3.86037e-13
  Excitation energy:                                             303.819323 eV
  Term symbol:  5 (-) A                                     R^2 =  2.58465e-14
  Excitation energy:                                             304.600683 eV
  Term symbol:  6 (-) A                                     R^2 =  1.09992e-13
  Excitation energy:                                             305.267650 eV
  Term symbol:  7 (-) A                                     R^2 =  4.45639e-14
  Excitation energy:                                             306.444388 eV
  Term symbol:  8 (-) A                                     R^2 =  4.98359e-14
  Excitation energy:                                             306.629883 eV
  Term symbol:  9 (-) A                                     R^2 =  3.85314e-14
  Excitation energy:                                             308.648802 eV
  Term symbol:  10 (-) A                                    R^2 =  4.05741e-14
  Excitation energy:                                             308.826626 eV
  Excited state 10 (A)                                             [converged]
  Term symbol:  11 (-) A                                    R^2 =  3.25197e-14
  Excitation energy:                                             313.412508 eV
  Excited state 11 (A)                                             [converged]
  Term symbol:  12 (-) A                                    R^2 =  1.17226e-13
  Excitation energy:                                             314.756465 eV
  Excited state 12 (A)                                             [converged]
  Term symbol:  13 (-) A                                    R^2 =  2.75382e-14
  Excitation energy:                                             314.849007 eV
  Excited state 13 (A)                                             [converged]
  Term symbol:  14 (-) A                                    R^2 =  6.64079e-14
  Excitation energy:                                             314.856155 eV
  Excited state 14 (A)                                             [converged]
  Term symbol:  15 (-) A                                    R^2 =  1.65283e-13
  Excitation energy:                                             315.086576 eV
  Excited state 15 (A)                                             [converged]
  Term symbol:  16 (-) A                                    R^2 =  1.83862e-13
  Excitation energy:                                             315.231680 eV
  Excited state 16 (A)                                             [converged]
  Term symbol:  17 (-) A                                    R^2 =  4.58104e-13
  Excitation energy:                                             315.272256 eV
  Excited state 17 (A)                                             [converged]
  Term symbol:  18 (-) A                                    R^2 =  1.31535e-12
  Excitation energy:                                             316.245801 eV
  Excited state 18 (A)                                         [not converged]
  Term symbol:  19 (-) A                                    R^2 =  2.11288e-04
  Excitation energy:                                             332.413746 eV
  Excited state 19 (A)                                         [not converged]
  Term symbol:  20 (-) A                                    R^2 =  1.95000e-05
  Excitation energy:                                             332.484779 eV
  Excited state 20 (A)                                         [not converged]
  Term symbol:  21 (-) A                                    R^2 =  3.93295e-03
  Excitation energy:                                             332.598081 eV

                    Orbital Energies (a.u.)
 --------------------------------------------------------------

 Alpha MOs
 -- Occupied --
-26.747 -26.744 -26.744 -26.616 -11.941  -2.191  -2.080  -2.076
 -1.867  -1.327  -1.254  -1.253  -1.204  -1.078  -1.077  -1.050
 -1.050  -1.032  -1.021  -0.928  -0.925

 Beta MOs
 -- Occupied --
-26.747 -26.744 -26.744 -26.568 -11.941  -2.191  -2.080  -2.076
 -1.674  -1.327  -1.254  -1.253  -1.204  -1.078  -1.077  -1.050
 -1.048  -1.021  -0.875  -0.873

          Ground-State Mulliken Net Atomic Charges

     Atom                 Charge (a.u.)    Spin (a.u.)
  --------------------------------------------------------
      1 C                     1.182384      -0.005196
      2 F                    -0.073374       0.000230
      3 F                    -0.073234       0.000223
      4 F                     0.026855       1.004651
      5 F                    -0.062632       0.000092
  --------------------------------------------------------
  Sum of atomic charges =     1.000000

                    Cartesian Multipole Moments
 -----------------------------------------------------------------
    Charge (ESU x 10^10)
                 4.8032
    Dipole Moment (Debye)
         X      -2.5128      Y      13.6255      Z      -0.9337
       Tot      13.8867
    Quadrupole Moments (Debye-Ang)
        XX     -18.9639     XY      -6.8638     YY      19.2665
        XZ       0.0474     YZ      -3.0875     ZZ     -20.5311

 Total job time:  1356.95s(wall), 1294.42s(cpu)
        *  Thank you very much for using Q-Chem.  Have a nice day.  *
