 Q-Chem 4.3, Q-Chem, Inc., Pleasanton, CA (2015)
 Q-Chem 4.3.0 for Intel X86 Linux

User input:
--------------------------------------------------------------
$comment
XAS calculation for valence excited states for CF4+ using cvs-adc(2) + 6-31G* basis set
job 1 - determination of HF orbitals
$end

$molecule
1 2
6  -0.564574  2.724406  -0.150101
9  0.645487  2.53636  -0.079239
9  -1.060137  3.465577  0.692231
9  -1.424616  0.371885  0.766529
9  -1.043207  2.788173  -1.284713
$end

$comment
cvs-adc(2) calculation
$end

$rem
mem_total 3000
mem_static 1500
sym_ignore true
method cvs-adc(2)
basis 6-31G*
ee_singlets 20
cc_rest_occ 5                  !only excitations from the lowest N orbitals
unrestricted  true
max_scf_cycles 200
SCF_ALGORITHM = DIIS_GDM
SCF_CONVERGENCE = 7
THRESH = 10
$end
--------------------------------------------------------------

             Standard Nuclear Orientation (Angstroms)
    I     Atom           X                Y                Z
 ----------------------------------------------------------------
    1      C      -0.5645740000     2.7244060000    -0.1501010000
    2      F       0.6454870000     2.5363600000    -0.0792390000
    3      F      -1.0601370000     3.4655770000     0.6922310000
    4      F      -1.4246160000     0.3718850000     0.7665290000
    5      F      -1.0432070000     2.7881730000    -1.2847130000
 ----------------------------------------------------------------

   80    -435.1556819551      8.34E-08 Convergence criterion met
 Total energy in the final basis set = -435.1556819551
  Term symbol:  2 (-) A                                     R^2 =  2.81321e-14
  Excitation energy:                                             293.443070 eV
  Term symbol:  3 (-) A                                     R^2 =  2.45101e-14
  Excitation energy:                                             295.386018 eV
  Term symbol:  4 (-) A                                     R^2 =  5.02307e-14
  Excitation energy:                                             304.293777 eV
  Term symbol:  5 (-) A                                     R^2 =  2.79965e-14
  Excitation energy:                                             304.757941 eV
  Term symbol:  6 (-) A                                     R^2 =  6.43113e-14
  Excitation energy:                                             304.890104 eV
  Term symbol:  7 (-) A                                     R^2 =  4.10455e-14
  Excitation energy:                                             305.083666 eV
  Term symbol:  8 (-) A                                     R^2 =  3.24435e-14
  Excitation energy:                                             306.068220 eV
  Term symbol:  9 (-) A                                     R^2 =  2.39886e-14
  Excitation energy:                                             306.979184 eV
  Term symbol:  10 (-) A                                    R^2 =  2.57441e-14
  Excitation energy:                                             307.150681 eV
  Excited state 10 (A)                                             [converged]
  Term symbol:  11 (-) A                                    R^2 =  5.34607e-14
  Excitation energy:                                             314.157085 eV
  Excited state 11 (A)                                             [converged]
  Term symbol:  12 (-) A                                    R^2 =  8.99808e-14
  Excitation energy:                                             314.663771 eV
  Excited state 12 (A)                                             [converged]
  Term symbol:  13 (-) A                                    R^2 =  5.72540e-14
  Excitation energy:                                             314.829051 eV
  Excited state 13 (A)                                             [converged]
  Term symbol:  14 (-) A                                    R^2 =  9.09858e-14
  Excitation energy:                                             314.862834 eV
  Excited state 14 (A)                                             [converged]
  Term symbol:  15 (-) A                                    R^2 =  1.87372e-13
  Excitation energy:                                             315.210940 eV
  Excited state 15 (A)                                             [converged]
  Term symbol:  16 (-) A                                    R^2 =  1.31975e-13
  Excitation energy:                                             315.296376 eV
  Excited state 16 (A)                                             [converged]
  Term symbol:  17 (-) A                                    R^2 =  2.11643e-13
  Excitation energy:                                             315.305914 eV
  Excited state 17 (A)                                             [converged]
  Term symbol:  18 (-) A                                    R^2 =  5.68794e-13
  Excitation energy:                                             315.836979 eV
  Excited state 18 (A)                                         [not converged]
  Term symbol:  19 (-) A                                    R^2 =  4.78667e-06
  Excitation energy:                                             332.650263 eV
  Excited state 19 (A)                                         [not converged]
  Term symbol:  20 (-) A                                    R^2 =  2.47910e-04
  Excitation energy:                                             332.717539 eV
  Excited state 20 (A)                                         [not converged]
  Term symbol:  21 (-) A                                    R^2 =  1.42301e-05
  Excitation energy:                                             332.793569 eV

                    Orbital Energies (a.u.)
 --------------------------------------------------------------

 Alpha MOs
 -- Occupied --
-26.741 -26.741 -26.738 -26.631 -11.955  -2.163  -2.054  -2.049
 -1.879  -1.320  -1.232  -1.231  -1.180  -1.066  -1.065  -1.046
 -1.035  -1.033  -1.014  -0.939  -0.937

 Beta MOs
 -- Occupied --
-26.741 -26.741 -26.738 -26.582 -11.955  -2.163  -2.054  -2.049
 -1.685  -1.320  -1.232  -1.231  -1.180  -1.066  -1.065  -1.036
 -1.033  -1.014  -0.885  -0.884

          Ground-State Mulliken Net Atomic Charges

     Atom                 Charge (a.u.)    Spin (a.u.)
  --------------------------------------------------------
      1 C                     1.233297      -0.005116
      2 F                    -0.087672      -0.000274
      3 F                    -0.087497      -0.000273
      4 F                     0.035845       1.005930
      5 F                    -0.093974      -0.000267
  --------------------------------------------------------
  Sum of atomic charges =     1.000000

                    Cartesian Multipole Moments
 -----------------------------------------------------------------
    Charge (ESU x 10^10)
                 4.8032
    Dipole Moment (Debye)
         X      -2.9624      Y      12.3884      Z      -0.4370
       Tot      12.7452
    Quadrupole Moments (Debye-Ang)
        XX     -18.5659     XY      -7.2636     YY      12.7301
        XZ      -0.2410     YZ      -1.6932     ZZ     -20.8406

 Total job time:  1404.11s(wall), 1368.81s(cpu)
        *  Thank you very much for using Q-Chem.  Have a nice day.  *
