 Q-Chem 4.3, Q-Chem, Inc., Pleasanton, CA (2015)
 Q-Chem 4.3.0 for Intel X86 Linux

User input:
--------------------------------------------------------------
$comment
XAS calculation for valence excited states for CF4+ using cvs-adc(2) + 6-31G* basis set
job 1 - determination of HF orbitals
$end

$molecule
1 2
6  -0.528096  2.808904  -0.172232
9  0.577596  2.313949  0.009485
9  -1.145096  3.250806  0.789066
9  -1.198581  1.006486  0.507544
9  -1.139433  2.537384  -1.197308
$end

$comment
cvs-adc(2) calculation
$end

$rem
mem_total 3000
mem_static 1500
sym_ignore true
method cvs-adc(2)
basis 6-31G*
ee_singlets 20
cc_rest_occ 5                  !only excitations from the lowest N orbitals
unrestricted  true
max_scf_cycles 200
SCF_ALGORITHM = DIIS_GDM
SCF_CONVERGENCE = 7
THRESH = 10
$end
--------------------------------------------------------------

             Standard Nuclear Orientation (Angstroms)
    I     Atom           X                Y                Z
 ----------------------------------------------------------------
    1      C      -0.5280960000     2.8089040000    -0.1722320000
    2      F       0.5775960000     2.3139490000     0.0094850000
    3      F      -1.1450960000     3.2508060000     0.7890660000
    4      F      -1.1985810000     1.0064860000     0.5075440000
    5      F      -1.1394330000     2.5373840000    -1.1973080000
 ----------------------------------------------------------------

   54    -435.1513822421      7.69E-08 Convergence criterion met
 Total energy in the final basis set = -435.1513822421
  Term symbol:  2 (-) A                                     R^2 =  5.02125e-13
  Excitation energy:                                             294.084887 eV
  Term symbol:  3 (-) A                                     R^2 =  4.33321e-13
  Excitation energy:                                             296.021984 eV
  Term symbol:  4 (-) A                                     R^2 =  9.52962e-14
  Excitation energy:                                             301.895280 eV
  Term symbol:  5 (-) A                                     R^2 =  1.21881e-13
  Excitation energy:                                             303.731918 eV
  Term symbol:  6 (-) A                                     R^2 =  1.00166e-13
  Excitation energy:                                             305.441313 eV
  Term symbol:  7 (-) A                                     R^2 =  1.39019e-13
  Excitation energy:                                             305.480311 eV
  Term symbol:  8 (-) A                                     R^2 =  3.04686e-13
  Excitation energy:                                             305.662523 eV
  Term symbol:  9 (-) A                                     R^2 =  1.97642e-13
  Excitation energy:                                             307.603429 eV
  Term symbol:  10 (-) A                                    R^2 =  1.70608e-13
  Excitation energy:                                             307.639048 eV
  Excited state 10 (A)                                             [converged]
  Term symbol:  11 (-) A                                    R^2 =  9.54735e-13
  Excitation energy:                                             313.401957 eV
  Excited state 11 (A)                                             [converged]
  Term symbol:  12 (-) A                                    R^2 =  3.06409e-13
  Excitation energy:                                             314.830101 eV
  Excited state 12 (A)                                             [converged]
  Term symbol:  13 (-) A                                    R^2 =  1.82358e-13
  Excitation energy:                                             315.143771 eV
  Excited state 13 (A)                                             [converged]
  Term symbol:  14 (-) A                                    R^2 =  1.48542e-13
  Excitation energy:                                             315.185374 eV
  Excited state 14 (A)                                             [converged]
  Term symbol:  15 (-) A                                    R^2 =  2.41618e-13
  Excitation energy:                                             315.576329 eV
  Excited state 15 (A)                                             [converged]
  Term symbol:  16 (-) A                                    R^2 =  2.39740e-13
  Excitation energy:                                             315.591114 eV
  Excited state 16 (A)                                             [converged]
  Term symbol:  17 (-) A                                    R^2 =  8.17006e-13
  Excitation energy:                                             318.587669 eV
  Excited state 17 (A)                                             [converged]
  Term symbol:  18 (-) A                                    R^2 =  1.42318e-12
  Excitation energy:                                             319.244501 eV
  Excited state 18 (A)                                             [converged]
  Term symbol:  19 (-) A                                    R^2 =  1.16771e-07
  Excitation energy:                                             331.568030 eV
  Excited state 19 (A)                                             [converged]
  Term symbol:  20 (-) A                                    R^2 =  5.77982e-07
  Excitation energy:                                             331.767274 eV
  Excited state 20 (A)                                         [not converged]
  Term symbol:  21 (-) A                                    R^2 =  1.07675e-06
  Excitation energy:                                             331.976815 eV

                    Orbital Energies (a.u.)
 --------------------------------------------------------------

 Alpha MOs
 -- Occupied --
-26.736 -26.736 -26.735 -26.671 -11.950  -2.162  -2.055  -2.054
 -1.931  -1.319  -1.233  -1.232  -1.192  -1.104  -1.065  -1.062
 -1.048  -1.031  -1.014  -0.975  -0.973

 Beta MOs
 -- Occupied --
-26.736 -26.736 -26.735 -26.622 -11.950  -2.162  -2.055  -2.055
 -1.740  -1.318  -1.232  -1.232  -1.188  -1.064  -1.063  -1.045
 -1.042  -1.014  -0.925  -0.924

          Ground-State Mulliken Net Atomic Charges

     Atom                 Charge (a.u.)    Spin (a.u.)
  --------------------------------------------------------
      1 C                     1.325410      -0.006907
      2 F                    -0.122576       0.001686
      3 F                    -0.122028       0.001455
      4 F                     0.036428       1.005080
      5 F                    -0.117233      -0.001314
  --------------------------------------------------------
  Sum of atomic charges =     1.000000

                    Cartesian Multipole Moments
 -----------------------------------------------------------------
    Charge (ESU x 10^10)
                 4.8032
    Dipole Moment (Debye)
         X      -2.6798      Y      13.1128      Z      -0.6862
       Tot      13.4014
    Quadrupole Moments (Debye-Ang)
        XX     -18.9701     XY      -6.9997     YY      16.3041
        XZ      -0.0634     YZ      -2.3378     ZZ     -20.8267

 Total job time:  1458.47s(wall), 1413.08s(cpu)
        *  Thank you very much for using Q-Chem.  Have a nice day.  *
