 Q-Chem 4.3, Q-Chem, Inc., Pleasanton, CA (2015)
 Q-Chem 4.3.0 for Intel X86 Linux

User input:
--------------------------------------------------------------
$comment
XAS calculation for valence excited states for CF4+ using cvs-adc(2) + 6-31G* basis set
job 1 - determination of HF orbitals
$end

$molecule
1 2
6  -0.546028  2.77297  -0.167629
9  0.626798  2.508895  -0.06857
9  -1.067381  3.431755  0.697765
9  -1.4023  0.434223  0.741288
9  -1.051303  2.756449  -1.264603
$end

$comment
cvs-adc(2) calculation
$end

$rem
mem_total 3000
mem_static 1500
sym_ignore true
method cvs-adc(2)
basis 6-31G*
ee_singlets 20
cc_rest_occ 5                  !only excitations from the lowest N orbitals
unrestricted  true
max_scf_cycles 200
SCF_ALGORITHM = DIIS_GDM
SCF_CONVERGENCE = 7
THRESH = 10
$end
--------------------------------------------------------------

             Standard Nuclear Orientation (Angstroms)
    I     Atom           X                Y                Z
 ----------------------------------------------------------------
    1      C      -0.5460280000     2.7729700000    -0.1676290000
    2      F       0.6267980000     2.5088950000    -0.0685700000
    3      F      -1.0673810000     3.4317550000     0.6977650000
    4      F      -1.4023000000     0.4342230000     0.7412880000
    5      F      -1.0513030000     2.7564490000    -1.2646030000
 ----------------------------------------------------------------

   73    -435.1713795597      9.16E-08 Convergence criterion met
 Total energy in the final basis set = -435.1713795597
  Term symbol:  2 (-) A                                     R^2 =  6.86144e-14
  Excitation energy:                                             294.185447 eV
  Term symbol:  3 (-) A                                     R^2 =  3.30423e-14
  Excitation energy:                                             296.130489 eV
  Term symbol:  4 (-) A                                     R^2 =  4.36990e-14
  Excitation energy:                                             304.001163 eV
  Term symbol:  5 (-) A                                     R^2 =  6.00177e-14
  Excitation energy:                                             304.635634 eV
  Term symbol:  6 (-) A                                     R^2 =  1.74825e-14
  Excitation energy:                                             305.544533 eV
  Term symbol:  7 (-) A                                     R^2 =  3.83576e-14
  Excitation energy:                                             305.931620 eV
  Term symbol:  8 (-) A                                     R^2 =  3.45846e-14
  Excitation energy:                                             305.988132 eV
  Term symbol:  9 (-) A                                     R^2 =  1.89213e-14
  Excitation energy:                                             308.095074 eV
  Term symbol:  10 (-) A                                    R^2 =  3.20371e-14
  Excitation energy:                                             308.149813 eV
  Excited state 10 (A)                                             [converged]
  Term symbol:  11 (-) A                                    R^2 =  4.14727e-14
  Excitation energy:                                             313.833192 eV
  Excited state 11 (A)                                             [converged]
  Term symbol:  12 (-) A                                    R^2 =  3.20140e-14
  Excitation energy:                                             314.624542 eV
  Excited state 12 (A)                                             [converged]
  Term symbol:  13 (-) A                                    R^2 =  3.10727e-14
  Excitation energy:                                             314.866937 eV
  Excited state 13 (A)                                             [converged]
  Term symbol:  14 (-) A                                    R^2 =  3.75033e-14
  Excitation energy:                                             314.905832 eV
  Excited state 14 (A)                                             [converged]
  Term symbol:  15 (-) A                                    R^2 =  4.58033e-14
  Excitation energy:                                             314.961179 eV
  Excited state 15 (A)                                             [converged]
  Term symbol:  16 (-) A                                    R^2 =  6.65747e-14
  Excitation energy:                                             315.284561 eV
  Excited state 16 (A)                                             [converged]
  Term symbol:  17 (-) A                                    R^2 =  1.70415e-13
  Excitation energy:                                             315.290411 eV
  Excited state 17 (A)                                             [converged]
  Term symbol:  18 (-) A                                    R^2 =  5.01112e-13
  Excitation energy:                                             315.956086 eV
  Excited state 18 (A)                                         [not converged]
  Term symbol:  19 (-) A                                    R^2 =  2.65042e-05
  Excitation energy:                                             332.567190 eV
  Excited state 19 (A)                                         [not converged]
  Term symbol:  20 (-) A                                    R^2 =  1.38375e-03
  Excitation energy:                                             332.595382 eV
  Excited state 20 (A)                                         [not converged]
  Term symbol:  21 (-) A                                    R^2 =  1.16864e-04
  Excitation energy:                                             332.750111 eV

                    Orbital Energies (a.u.)
 --------------------------------------------------------------

 Alpha MOs
 -- Occupied --
-26.743 -26.743 -26.742 -26.627 -11.946  -2.180  -2.068  -2.067
 -1.876  -1.324  -1.245  -1.245  -1.194  -1.073  -1.073  -1.047
 -1.043  -1.039  -1.018  -0.937  -0.934

 Beta MOs
 -- Occupied --
-26.743 -26.743 -26.742 -26.578 -11.946  -2.180  -2.069  -2.067
 -1.682  -1.324  -1.245  -1.245  -1.194  -1.073  -1.073  -1.044
 -1.043  -1.018  -0.882  -0.881

          Ground-State Mulliken Net Atomic Charges

     Atom                 Charge (a.u.)    Spin (a.u.)
  --------------------------------------------------------
      1 C                     1.194331      -0.005157
      2 F                    -0.076014      -0.000108
      3 F                    -0.075725      -0.000110
      4 F                     0.033763       1.005503
      5 F                    -0.076355      -0.000127
  --------------------------------------------------------
  Sum of atomic charges =     1.000000

                    Cartesian Multipole Moments
 -----------------------------------------------------------------
    Charge (ESU x 10^10)
                 4.8032
    Dipole Moment (Debye)
         X      -2.8315      Y      12.7545      Z      -0.5876
       Tot      13.0783
    Quadrupole Moments (Debye-Ang)
        XX     -18.6392     XY      -7.1886     YY      14.6227
        XZ      -0.1383     YZ      -2.0816     ZZ     -20.7018

 Total job time:  1439.30s(wall), 1404.45s(cpu)
        *  Thank you very much for using Q-Chem.  Have a nice day.  *
