 Q-Chem 4.3, Q-Chem, Inc., Pleasanton, CA (2015)
 Q-Chem 4.3.0 for Intel X86 Linux

User input:
--------------------------------------------------------------
$comment
XAS calculation for valence excited states for CF4+ using cvs-adc(2) + 6-31G* basis set
job 1 - determination of HF orbitals
$end

$molecule
1 2
6  -0.455844  2.999917  -0.242312
9  0.583817  2.368768  -0.014741
9  -1.122199  3.297525  0.757224
9  -1.301317  0.716544  0.626824
9  -1.111451  2.605139  -1.216255
$end

$comment
cvs-adc(2) calculation
$end

$rem
mem_total 3000
mem_static 1500
sym_ignore true
method cvs-adc(2)
basis 6-31G*
ee_singlets 20
cc_rest_occ 5                  !only excitations from the lowest N orbitals
unrestricted  true
max_scf_cycles 200
SCF_ALGORITHM = DIIS_GDM
SCF_CONVERGENCE = 7
THRESH = 10
$end
--------------------------------------------------------------

             Standard Nuclear Orientation (Angstroms)
    I     Atom           X                Y                Z
 ----------------------------------------------------------------
    1      C      -0.4558440000     2.9999170000    -0.2423120000
    2      F       0.5838170000     2.3687680000    -0.0147410000
    3      F      -1.1221990000     3.2975250000     0.7572240000
    4      F      -1.3013170000     0.7165440000     0.6268240000
    5      F      -1.1114510000     2.6051390000    -1.2162550000
 ----------------------------------------------------------------

   72    -435.1378616675      8.67E-08 Convergence criterion met
 Total energy in the final basis set = -435.1378616675
  Term symbol:  2 (-) A                                     R^2 =  9.14389e-14
  Excitation energy:                                             292.996249 eV
  Term symbol:  3 (-) A                                     R^2 =  7.85165e-14
  Excitation energy:                                             294.884073 eV
  Term symbol:  4 (-) A                                     R^2 =  1.16304e-13
  Excitation energy:                                             304.478313 eV
  Term symbol:  5 (-) A                                     R^2 =  1.07220e-13
  Excitation energy:                                             304.480545 eV
  Term symbol:  6 (-) A                                     R^2 =  1.00197e-13
  Excitation energy:                                             304.543818 eV
  Term symbol:  7 (-) A                                     R^2 =  1.15785e-13
  Excitation energy:                                             304.650992 eV
  Term symbol:  8 (-) A                                     R^2 =  2.05064e-13
  Excitation energy:                                             306.492620 eV
  Term symbol:  9 (-) A                                     R^2 =  1.27606e-13
  Excitation energy:                                             306.537322 eV
  Term symbol:  10 (-) A                                    R^2 =  1.81317e-13
  Excitation energy:                                             306.549173 eV
  Excited state 10 (A)                                             [converged]
  Term symbol:  11 (-) A                                    R^2 =  5.56527e-14
  Excitation energy:                                             313.375044 eV
  Excited state 11 (A)                                             [converged]
  Term symbol:  12 (-) A                                    R^2 =  7.53512e-14
  Excitation energy:                                             314.707545 eV
  Excited state 12 (A)                                             [converged]
  Term symbol:  13 (-) A                                    R^2 =  1.67776e-13
  Excitation energy:                                             314.713908 eV
  Excited state 13 (A)                                             [converged]
  Term symbol:  14 (-) A                                    R^2 =  2.28417e-13
  Excitation energy:                                             314.795412 eV
  Excited state 14 (A)                                             [converged]
  Term symbol:  15 (-) A                                    R^2 =  3.65729e-13
  Excitation energy:                                             315.197986 eV
  Excited state 15 (A)                                             [converged]
  Term symbol:  16 (-) A                                    R^2 =  3.92067e-13
  Excitation energy:                                             315.200749 eV
  Excited state 16 (A)                                             [converged]
  Term symbol:  17 (-) A                                    R^2 =  1.09179e-12
  Excitation energy:                                             316.465052 eV
  Excited state 17 (A)                                             [converged]
  Term symbol:  18 (-) A                                    R^2 =  1.13835e-12
  Excitation energy:                                             317.160201 eV
  Excited state 18 (A)                                         [not converged]
  Term symbol:  19 (-) A                                    R^2 =  7.14624e-04
  Excitation energy:                                             332.565131 eV
  Excited state 19 (A)                                         [not converged]
  Term symbol:  20 (-) A                                    R^2 =  3.84712e-04
  Excitation energy:                                             332.572941 eV
  Excited state 20 (A)                                         [not converged]
  Term symbol:  21 (-) A                                    R^2 =  3.69628e-03
  Excitation energy:                                             332.651499 eV

                    Orbital Energies (a.u.)
 --------------------------------------------------------------

 Alpha MOs
 -- Occupied --
-26.740 -26.740 -26.739 -26.610 -11.958  -2.158  -2.046  -2.045
 -1.863  -1.320  -1.227  -1.226  -1.176  -1.065  -1.064  -1.039
 -1.031  -1.021  -1.013  -0.923  -0.920

 Beta MOs
 -- Occupied --
-26.740 -26.740 -26.739 -26.562 -11.958  -2.158  -2.046  -2.045
 -1.671  -1.320  -1.227  -1.226  -1.176  -1.064  -1.064  -1.032
 -1.031  -1.012  -0.870  -0.868

          Ground-State Mulliken Net Atomic Charges

     Atom                 Charge (a.u.)    Spin (a.u.)
  --------------------------------------------------------
      1 C                     1.295039      -0.005369
      2 F                    -0.105087       0.000729
      3 F                    -0.105256       0.000699
      4 F                     0.019699       1.003780
      5 F                    -0.104395       0.000160
  --------------------------------------------------------
  Sum of atomic charges =     1.000000

                    Cartesian Multipole Moments
 -----------------------------------------------------------------
    Charge (ESU x 10^10)
                 4.8032
    Dipole Moment (Debye)
         X      -2.1737      Y      14.4349      Z      -1.1626
       Tot      14.6438
    Quadrupole Moments (Debye-Ang)
        XX     -19.4942     XY      -6.2722     YY      23.7719
        XZ       0.0807     YZ      -3.9149     ZZ     -20.6682

 Total job time:  1581.93s(wall), 1507.07s(cpu)
        *  Thank you very much for using Q-Chem.  Have a nice day.  *
