 Q-Chem 4.3, Q-Chem, Inc., Pleasanton, CA (2015)
 Q-Chem 4.3.0 for Intel X86 Linux

User input:
--------------------------------------------------------------
$comment
XAS calculation for valence excited states for CF4+ using cvs-adc(2) + 6-31G* basis set
job 1 - determination of HF orbitals
$end

$molecule
1 2
6  -0.45084  3.009444  -0.243004
9  0.582199  2.345165  -0.005478
9  -1.133194  3.278854  0.77079
9  -1.279296  0.778311  0.601668
9  -1.12402  2.579627  -1.213491
$end

$comment
cvs-adc(2) calculation
$end

$rem
mem_total 3000
mem_static 1500
sym_ignore true
method cvs-adc(2)
basis 6-31G*
ee_singlets 20
cc_rest_occ 5                  !only excitations from the lowest N orbitals
unrestricted  true
max_scf_cycles 200
SCF_ALGORITHM = DIIS_GDM
SCF_CONVERGENCE = 7
THRESH = 10
$end
--------------------------------------------------------------

             Standard Nuclear Orientation (Angstroms)
    I     Atom           X                Y                Z
 ----------------------------------------------------------------
    1      C      -0.4508400000     3.0094440000    -0.2430040000
    2      F       0.5821990000     2.3451650000    -0.0054780000
    3      F      -1.1331940000     3.2788540000     0.7707900000
    4      F      -1.2792960000     0.7783110000     0.6016680000
    5      F      -1.1240200000     2.5796270000    -1.2134910000
 ----------------------------------------------------------------

   75    -435.1239174497      3.35E-08 Convergence criterion met
 Total energy in the final basis set = -435.1239174497
  Term symbol:  2 (-) A                                     R^2 =  8.08465e-14
  Excitation energy:                                             292.665714 eV
  Term symbol:  3 (-) A                                     R^2 =  2.27558e-14
  Excitation energy:                                             294.551788 eV
  Term symbol:  4 (-) A                                     R^2 =  7.08974e-14
  Excitation energy:                                             303.858508 eV
  Term symbol:  5 (-) A                                     R^2 =  3.37110e-14
  Excitation energy:                                             303.967274 eV
  Term symbol:  6 (-) A                                     R^2 =  2.65253e-14
  Excitation energy:                                             304.460308 eV
  Term symbol:  7 (-) A                                     R^2 =  1.35310e-13
  Excitation energy:                                             304.463657 eV
  Term symbol:  8 (-) A                                     R^2 =  1.23331e-13
  Excitation energy:                                             305.874397 eV
  Term symbol:  9 (-) A                                     R^2 =  3.49138e-14
  Excitation energy:                                             305.991899 eV
  Term symbol:  10 (-) A                                    R^2 =  1.21355e-13
  Excitation energy:                                             306.539924 eV
  Excited state 10 (A)                                             [converged]
  Term symbol:  11 (-) A                                    R^2 =  8.62670e-14
  Excitation energy:                                             313.395716 eV
  Excited state 11 (A)                                             [converged]
  Term symbol:  12 (-) A                                    R^2 =  6.09838e-14
  Excitation energy:                                             314.706301 eV
  Excited state 12 (A)                                             [converged]
  Term symbol:  13 (-) A                                    R^2 =  9.64275e-14
  Excitation energy:                                             314.709123 eV
  Excited state 13 (A)                                             [converged]
  Term symbol:  14 (-) A                                    R^2 =  8.89526e-14
  Excitation energy:                                             314.784491 eV
  Excited state 14 (A)                                             [converged]
  Term symbol:  15 (-) A                                    R^2 =  2.01302e-13
  Excitation energy:                                             315.211344 eV
  Excited state 15 (A)                                             [converged]
  Term symbol:  16 (-) A                                    R^2 =  1.63058e-13
  Excitation energy:                                             315.222912 eV
  Excited state 16 (A)                                             [converged]
  Term symbol:  17 (-) A                                    R^2 =  9.49138e-13
  Excitation energy:                                             317.089505 eV
  Excited state 17 (A)                                             [converged]
  Term symbol:  18 (-) A                                    R^2 =  1.03341e-12
  Excitation energy:                                             317.704424 eV
  Excited state 18 (A)                                         [not converged]
  Term symbol:  19 (-) A                                    R^2 =  1.09623e-03
  Excitation energy:                                             332.348176 eV
  Excited state 19 (A)                                         [not converged]
  Term symbol:  20 (-) A                                    R^2 =  9.66566e-05
  Excitation energy:                                             332.368275 eV
  Excited state 20 (A)                                         [not converged]
  Term symbol:  21 (-) A                                    R^2 =  4.07897e-05
  Excitation energy:                                             332.419123 eV

                    Orbital Energies (a.u.)
 --------------------------------------------------------------

 Alpha MOs
 -- Occupied --
-26.739 -26.739 -26.736 -26.613 -11.963  -2.146  -2.037  -2.033
 -1.867  -1.317  -1.218  -1.217  -1.168  -1.061  -1.058  -1.039
 -1.026  -1.018  -1.010  -0.925  -0.923

 Beta MOs
 -- Occupied --
-26.739 -26.739 -26.736 -26.564 -11.963  -2.146  -2.037  -2.033
 -1.674  -1.317  -1.218  -1.217  -1.167  -1.059  -1.058  -1.028
 -1.026  -1.010  -0.873  -0.871

          Ground-State Mulliken Net Atomic Charges

     Atom                 Charge (a.u.)    Spin (a.u.)
  --------------------------------------------------------
      1 C                     1.331506      -0.005640
      2 F                    -0.115272       0.000997
      3 F                    -0.115603       0.000951
      4 F                     0.018636       1.003571
      5 F                    -0.119267       0.000121
  --------------------------------------------------------
  Sum of atomic charges =     1.000000

                    Cartesian Multipole Moments
 -----------------------------------------------------------------
    Charge (ESU x 10^10)
                 4.8032
    Dipole Moment (Debye)
         X      -2.1270      Y      14.5189      Z      -1.1635
       Tot      14.7200
    Quadrupole Moments (Debye-Ang)
        XX     -19.5933     XY      -6.1703     YY      24.2207
        XZ       0.0642     YZ      -3.9379     ZZ     -20.7377

 Total job time:  1558.10s(wall), 1491.17s(cpu)
        *  Thank you very much for using Q-Chem.  Have a nice day.  *
