 Q-Chem 4.3, Q-Chem, Inc., Pleasanton, CA (2015)
 Q-Chem 4.3.0 for Intel X86 Linux

User input:
--------------------------------------------------------------
$comment
XAS calculation for valence excited states for CF4+ using cvs-adc(2) + 6-31G* basis set
job 1 - determination of HF orbitals
$end

$molecule
1 2
6  -0.555894  2.747043  -0.158188
9  0.63608  2.523061  -0.074062
9  -1.063517  3.448934  0.694702
9  -1.413477  0.402999  0.753931
9  -1.047041  2.772703  -1.274655
$end

$comment
cvs-adc(2) calculation
$end

$rem
mem_total 3000
mem_static 1500
sym_ignore true
method cvs-adc(2)
basis 6-31G*
ee_singlets 20
cc_rest_occ 5                  !only excitations from the lowest N orbitals
unrestricted  true
max_scf_cycles 200
SCF_ALGORITHM = DIIS_GDM
SCF_CONVERGENCE = 7
THRESH = 10
$end
--------------------------------------------------------------

             Standard Nuclear Orientation (Angstroms)
    I     Atom           X                Y                Z
 ----------------------------------------------------------------
    1      C      -0.5558940000     2.7470430000    -0.1581880000
    2      F       0.6360800000     2.5230610000    -0.0740620000
    3      F      -1.0635170000     3.4489340000     0.6947020000
    4      F      -1.4134770000     0.4029990000     0.7539310000
    5      F      -1.0470410000     2.7727030000    -1.2746550000
 ----------------------------------------------------------------

   79    -435.1644572420      7.47E-08 Convergence criterion met
 Total energy in the final basis set = -435.1644572420
  Term symbol:  2 (-) A                                     R^2 =  1.72984e-14
  Excitation energy:                                             293.813234 eV
  Term symbol:  3 (-) A                                     R^2 =  8.82683e-14
  Excitation energy:                                             295.757005 eV
  Term symbol:  4 (-) A                                     R^2 =  3.72529e-14
  Excitation energy:                                             304.173573 eV
  Term symbol:  5 (-) A                                     R^2 =  4.79131e-14
  Excitation energy:                                             304.694678 eV
  Term symbol:  6 (-) A                                     R^2 =  2.01306e-14
  Excitation energy:                                             305.418871 eV
  Term symbol:  7 (-) A                                     R^2 =  4.39477e-14
  Excitation energy:                                             305.546455 eV
  Term symbol:  8 (-) A                                     R^2 =  5.18535e-14
  Excitation energy:                                             305.827932 eV
  Term symbol:  9 (-) A                                     R^2 =  2.63033e-14
  Excitation energy:                                             307.547136 eV
  Term symbol:  10 (-) A                                    R^2 =  5.42759e-14
  Excitation energy:                                             307.669319 eV
  Excited state 10 (A)                                             [converged]
  Term symbol:  11 (-) A                                    R^2 =  4.53374e-14
  Excitation energy:                                             314.000397 eV
  Excited state 11 (A)                                             [converged]
  Term symbol:  12 (-) A                                    R^2 =  8.07096e-14
  Excitation energy:                                             314.624409 eV
  Excited state 12 (A)                                             [converged]
  Term symbol:  13 (-) A                                    R^2 =  4.73015e-14
  Excitation energy:                                             314.847787 eV
  Excited state 13 (A)                                             [converged]
  Term symbol:  14 (-) A                                    R^2 =  1.88245e-13
  Excitation energy:                                             314.881802 eV
  Excited state 14 (A)                                             [converged]
  Term symbol:  15 (-) A                                    R^2 =  9.42795e-14
  Excitation energy:                                             315.083373 eV
  Excited state 15 (A)                                             [converged]
  Term symbol:  16 (-) A                                    R^2 =  2.46157e-13
  Excitation energy:                                             315.289858 eV
  Excited state 16 (A)                                             [converged]
  Term symbol:  17 (-) A                                    R^2 =  1.20793e-13
  Excitation energy:                                             315.290814 eV
  Excited state 17 (A)                                             [converged]
  Term symbol:  18 (-) A                                    R^2 =  5.54095e-13
  Excitation energy:                                             315.893827 eV
  Excited state 18 (A)                                         [not converged]
  Term symbol:  19 (-) A                                    R^2 =  6.11573e-06
  Excitation energy:                                             332.623435 eV
  Excited state 19 (A)                                         [not converged]
  Term symbol:  20 (-) A                                    R^2 =  1.84105e-03
  Excitation energy:                                             332.678418 eV
  Excited state 20 (A)                                         [not converged]
  Term symbol:  21 (-) A                                    R^2 =  4.42605e-05
  Excitation energy:                                             332.791213 eV

                    Orbital Energies (a.u.)
 --------------------------------------------------------------

 Alpha MOs
 -- Occupied --
-26.742 -26.742 -26.740 -26.629 -11.950  -2.172  -2.061  -2.058
 -1.878  -1.322  -1.239  -1.238  -1.187  -1.070  -1.069  -1.046
 -1.038  -1.038  -1.016  -0.938  -0.936

 Beta MOs
 -- Occupied --
-26.742 -26.742 -26.740 -26.580 -11.950  -2.172  -2.062  -2.058
 -1.684  -1.322  -1.239  -1.238  -1.187  -1.070  -1.069  -1.040
 -1.038  -1.016  -0.884  -0.883

          Ground-State Mulliken Net Atomic Charges

     Atom                 Charge (a.u.)    Spin (a.u.)
  --------------------------------------------------------
      1 C                     1.212802      -0.005147
      2 F                    -0.081448      -0.000194
      3 F                    -0.081206      -0.000194
      4 F                     0.035023       1.005733
      5 F                    -0.085171      -0.000198
  --------------------------------------------------------
  Sum of atomic charges =     1.000000

                    Cartesian Multipole Moments
 -----------------------------------------------------------------
    Charge (ESU x 10^10)
                 4.8032
    Dipole Moment (Debye)
         X      -2.9010      Y      12.5592      Z      -0.5063
       Tot      12.8998
    Quadrupole Moments (Debye-Ang)
        XX     -18.5962     XY      -7.2310     YY      13.6097
        XZ      -0.1927     YZ      -1.8688     ZZ     -20.7722

 Total job time:  1499.12s(wall), 1433.00s(cpu)
        *  Thank you very much for using Q-Chem.  Have a nice day.  *
