 Q-Chem 4.3, Q-Chem, Inc., Pleasanton, CA (2015)
 Q-Chem 4.3.0 for Intel X86 Linux

User input:
--------------------------------------------------------------
$comment
XAS calculation for valence excited states for CF4+ using cvs-adc(2) + 6-31G* basis set
job 1 - determination of HF orbitals
$end

$molecule
1 2
6  -0.500487  2.905256  -0.225352
9  0.67988  2.611848  -0.11141
9  -1.036396  3.547582  0.664744
9  -1.554398  0.00934  0.913324
9  -1.012038  2.878996  -1.324318
$end

$comment
cvs-adc(2) calculation
$end

$rem
mem_total 3000
mem_static 1500
sym_ignore true
method cvs-adc(2)
basis 6-31G*
ee_singlets 20
cc_rest_occ 5                  !only excitations from the lowest N orbitals
unrestricted  true
max_scf_cycles 200
SCF_ALGORITHM = DIIS_GDM
SCF_CONVERGENCE = 7
THRESH = 10
$end
--------------------------------------------------------------

             Standard Nuclear Orientation (Angstroms)
    I     Atom           X                Y                Z
 ----------------------------------------------------------------
    1      C      -0.5004870000     2.9052560000    -0.2253520000
    2      F       0.6798800000     2.6118480000    -0.1114100000
    3      F      -1.0363960000     3.5475820000     0.6647440000
    4      F      -1.5543980000     0.0093400000     0.9133240000
    5      F      -1.0120380000     2.8789960000    -1.3243180000
 ----------------------------------------------------------------

   97    -435.1706521554      4.25E-08 Convergence criterion met
 Total energy in the final basis set = -435.1706521554
  Term symbol:  2 (-) A                                     R^2 =  1.97752e-14
  Excitation energy:                                             294.163918 eV
  Term symbol:  3 (-) A                                     R^2 =  3.12115e-14
  Excitation energy:                                             296.077400 eV
  Term symbol:  4 (-) A                                     R^2 =  6.50561e-14
  Excitation energy:                                             303.368820 eV
  Term symbol:  5 (-) A                                     R^2 =  1.04797e-13
  Excitation energy:                                             304.951213 eV
  Term symbol:  6 (-) A                                     R^2 =  3.14087e-14
  Excitation energy:                                             305.520140 eV
  Term symbol:  7 (-) A                                     R^2 =  2.60790e-14
  Excitation energy:                                             305.728906 eV
  Term symbol:  8 (-) A                                     R^2 =  2.41181e-14
  Excitation energy:                                             307.067770 eV
  Term symbol:  9 (-) A                                     R^2 =  6.32637e-14
  Excitation energy:                                             307.693528 eV
  Term symbol:  10 (-) A                                    R^2 =  4.34291e-14
  Excitation energy:                                             307.888149 eV
  Excited state 10 (A)                                             [converged]
  Term symbol:  11 (-) A                                    R^2 =  7.98174e-14
  Excitation energy:                                             313.605013 eV
  Excited state 11 (A)                                             [converged]
  Term symbol:  12 (-) A                                    R^2 =  8.17339e-14
  Excitation energy:                                             313.977963 eV
  Excited state 12 (A)                                             [converged]
  Term symbol:  13 (-) A                                    R^2 =  7.87278e-14
  Excitation energy:                                             314.454294 eV
  Excited state 13 (A)                                             [converged]
  Term symbol:  14 (-) A                                    R^2 =  2.88443e-13
  Excitation energy:                                             314.993770 eV
  Excited state 14 (A)                                             [converged]
  Term symbol:  15 (-) A                                    R^2 =  7.88873e-13
  Excitation energy:                                             315.020449 eV
  Excited state 15 (A)                                             [converged]
  Term symbol:  16 (-) A                                    R^2 =  6.36265e-13
  Excitation energy:                                             315.385880 eV
  Excited state 16 (A)                                             [converged]
  Term symbol:  17 (-) A                                    R^2 =  6.91529e-13
  Excitation energy:                                             315.427120 eV
  Excited state 17 (A)                                             [converged]
  Term symbol:  18 (-) A                                    R^2 =  1.76034e-13
  Excitation energy:                                             315.523840 eV
  Excited state 18 (A)                                         [not converged]
  Term symbol:  19 (-) A                                    R^2 =  1.10202e-05
  Excitation energy:                                             332.663670 eV
  Excited state 19 (A)                                         [not converged]
  Term symbol:  20 (-) A                                    R^2 =  2.04277e-04
  Excitation energy:                                             332.763242 eV
  Excited state 20 (A)                                         [not converged]
  Term symbol:  21 (-) A                                    R^2 =  2.21189e-05
  Excitation energy:                                             332.841513 eV

                    Orbital Energies (a.u.)
 --------------------------------------------------------------

 Alpha MOs
 -- Occupied --
-26.751 -26.747 -26.747 -26.573 -11.954  -2.174  -2.069  -2.064
 -1.824  -1.326  -1.244  -1.243  -1.191  -1.074  -1.074  -1.048
 -1.045  -1.023  -0.992  -0.886  -0.884

 Beta MOs
 -- Occupied --
-26.751 -26.747 -26.747 -26.525 -11.954  -2.174  -2.069  -2.064
 -1.632  -1.326  -1.244  -1.243  -1.191  -1.074  -1.074  -1.048
 -1.045  -1.023  -0.833  -0.832

          Ground-State Mulliken Net Atomic Charges

     Atom                 Charge (a.u.)    Spin (a.u.)
  --------------------------------------------------------
      1 C                     1.236335      -0.001140
      2 F                    -0.085241       0.000013
      3 F                    -0.085094       0.000013
      4 F                     0.007790       1.001102
      5 F                    -0.073790       0.000012
  --------------------------------------------------------
  Sum of atomic charges =     1.000000

                    Cartesian Multipole Moments
 -----------------------------------------------------------------
    Charge (ESU x 10^10)
                 4.8032
    Dipole Moment (Debye)
         X      -2.5415      Y      13.6339      Z      -1.0008
       Tot      13.9049
    Quadrupole Moments (Debye-Ang)
        XX     -19.0138     XY      -7.0838     YY      18.9337
        XZ       0.1329     YZ      -3.1497     ZZ     -20.5840

 Total job time:  1289.94s(wall), 1245.75s(cpu)
        *  Thank you very much for using Q-Chem.  Have a nice day.  *
