 Q-Chem 4.3, Q-Chem, Inc., Pleasanton, CA (2015)
 Q-Chem 4.3.0 for Intel X86 Linux

User input:
--------------------------------------------------------------
$comment
XAS calculation for valence excited states for CF4+ using cvs-adc(2) + 6-31G* basis set
job 1 - determination of HF orbitals
$end

$molecule
1 2
6  -0.482215  2.952733  -0.24201
9  0.676462  2.612346  -0.112103
9  -1.03533  3.545695  0.662021
9  -1.564953  -0.020146  0.925265
9  -1.010673  2.879882  -1.322322
$end

$comment
cvs-adc(2) calculation
$end

$rem
mem_total 3000
mem_static 1500
sym_ignore true
method cvs-adc(2)
basis 6-31G*
ee_singlets 20
cc_rest_occ 5                  !only excitations from the lowest N orbitals
unrestricted  true
max_scf_cycles 200
SCF_ALGORITHM = DIIS_GDM
SCF_CONVERGENCE = 7
THRESH = 10
$end
--------------------------------------------------------------

             Standard Nuclear Orientation (Angstroms)
    I     Atom           X                Y                Z
 ----------------------------------------------------------------
    1      C      -0.4822150000     2.9527330000    -0.2420100000
    2      F       0.6764620000     2.6123460000    -0.1121030000
    3      F      -1.0353300000     3.5456950000     0.6620210000
    4      F      -1.5649530000    -0.0201460000     0.9252650000
    5      F      -1.0106730000     2.8798820000    -1.3223220000
 ----------------------------------------------------------------

  110    -435.1750988008      8.01E-08 Convergence criterion met
 Total energy in the final basis set = -435.1750988008
  Term symbol:  2 (-) A                                     R^2 =  1.35781e-13
  Excitation energy:                                             294.446815 eV
  Term symbol:  3 (-) A                                     R^2 =  1.49682e-13
  Excitation energy:                                             296.364590 eV
  Term symbol:  4 (-) A                                     R^2 =  5.93724e-13
  Excitation energy:                                             303.218921 eV
  Term symbol:  5 (-) A                                     R^2 =  1.65927e-13
  Excitation energy:                                             304.720399 eV
  Term symbol:  6 (-) A                                     R^2 =  1.99798e-13
  Excitation energy:                                             305.839743 eV
  Term symbol:  7 (-) A                                     R^2 =  2.84444e-13
  Excitation energy:                                             306.072904 eV
  Term symbol:  8 (-) A                                     R^2 =  2.34679e-12
  Excitation energy:                                             307.242865 eV
  Term symbol:  9 (-) A                                     R^2 =  1.92072e-13
  Excitation energy:                                             308.037561 eV
  Term symbol:  10 (-) A                                    R^2 =  3.51925e-13
  Excitation energy:                                             308.257072 eV
  Excited state 10 (A)                                             [converged]
  Term symbol:  11 (-) A                                    R^2 =  2.48545e-13
  Excitation energy:                                             313.601451 eV
  Excited state 11 (A)                                             [converged]
  Term symbol:  12 (-) A                                    R^2 =  4.52232e-13
  Excitation energy:                                             313.802728 eV
  Excited state 12 (A)                                             [converged]
  Term symbol:  13 (-) A                                    R^2 =  3.73206e-13
  Excitation energy:                                             314.357275 eV
  Excited state 13 (A)                                             [converged]
  Term symbol:  14 (-) A                                    R^2 =  1.00577e-12
  Excitation energy:                                             315.009890 eV
  Excited state 14 (A)                                             [converged]
  Term symbol:  15 (-) A                                    R^2 =  4.44044e-13
  Excitation energy:                                             315.037175 eV
  Excited state 15 (A)                                             [converged]
  Term symbol:  16 (-) A                                    R^2 =  6.08833e-13
  Excitation energy:                                             315.383496 eV
  Excited state 16 (A)                                             [converged]
  Term symbol:  17 (-) A                                    R^2 =  1.00901e-12
  Excitation energy:                                             315.426842 eV
  Excited state 17 (A)                                             [converged]
  Term symbol:  18 (-) A                                    R^2 =  6.95656e-13
  Excitation energy:                                             315.517217 eV
  Excited state 18 (A)                                         [not converged]
  Term symbol:  19 (-) A                                    R^2 =  6.16041e-06
  Excitation energy:                                             332.602428 eV
  Excited state 19 (A)                                         [not converged]
  Term symbol:  20 (-) A                                    R^2 =  1.44951e-06
  Excitation energy:                                             332.715295 eV
  Excited state 20 (A)                                         [not converged]
  Term symbol:  21 (-) A                                    R^2 =  1.80290e-04
  Excitation energy:                                             332.788631 eV

                    Orbital Energies (a.u.)
 --------------------------------------------------------------

 Alpha MOs
 -- Occupied --
-26.753 -26.748 -26.748 -26.566 -11.952  -2.180  -2.075  -2.069
 -1.818  -1.328  -1.249  -1.248  -1.196  -1.077  -1.077  -1.051
 -1.048  -1.025  -0.986  -0.880  -0.878

 Beta MOs
 -- Occupied --
-26.753 -26.748 -26.748 -26.518 -11.952  -2.180  -2.075  -2.069
 -1.626  -1.328  -1.249  -1.248  -1.196  -1.077  -1.077  -1.051
 -1.048  -1.025  -0.827  -0.826

          Ground-State Mulliken Net Atomic Charges

     Atom                 Charge (a.u.)    Spin (a.u.)
  --------------------------------------------------------
      1 C                     1.223600      -0.000902
      2 F                    -0.080796       0.000024
      3 F                    -0.080557       0.000024
      4 F                     0.006037       1.000833
      5 F                    -0.068283       0.000022
  --------------------------------------------------------
  Sum of atomic charges =     1.000000

                    Cartesian Multipole Moments
 -----------------------------------------------------------------
    Charge (ESU x 10^10)
                 4.8032
    Dipole Moment (Debye)
         X      -2.4234      Y      13.9449      Z      -1.1127
       Tot      14.1976
    Quadrupole Moments (Debye-Ang)
        XX     -19.1106     XY      -6.9353     YY      20.6721
        XZ       0.1777     YZ      -3.5043     ZZ     -20.5084

 Total job time:  1324.05s(wall), 1264.99s(cpu)
        *  Thank you very much for using Q-Chem.  Have a nice day.  *
