 Q-Chem 4.3, Q-Chem, Inc., Pleasanton, CA (2015)
 Q-Chem 4.3.0 for Intel X86 Linux

User input:
--------------------------------------------------------------
$comment
XAS calculation for valence excited states for CF4+ using cvs-adc(2) + 6-31G* basis set
job 1 - determination of HF orbitals
$end

$molecule
1 2
6  -0.471946  2.951731  -0.220355
9  0.579789  2.317444  0.006249
9  -1.145366  3.256068  0.786985
9  -1.236847  0.89779  0.552738
9  -1.138556  2.547107  -1.206789
$end

$comment
cvs-adc(2) calculation
$end

$rem
mem_total 3000
mem_static 1500
sym_ignore true
method cvs-adc(2)
basis 6-31G*
ee_singlets 20
cc_rest_occ 5                  !only excitations from the lowest N orbitals
unrestricted  true
max_scf_cycles 200
SCF_ALGORITHM = DIIS_GDM
SCF_CONVERGENCE = 7
THRESH = 10
$end
--------------------------------------------------------------

             Standard Nuclear Orientation (Angstroms)
    I     Atom           X                Y                Z
 ----------------------------------------------------------------
    1      C      -0.4719460000     2.9517310000    -0.2203550000
    2      F       0.5797890000     2.3174440000     0.0062490000
    3      F      -1.1453660000     3.2560680000     0.7869850000
    4      F      -1.2368470000     0.8977900000     0.5527380000
    5      F      -1.1385560000     2.5471070000    -1.2067890000
 ----------------------------------------------------------------

   64    -435.1276461216      5.63E-08 Convergence criterion met
 Total energy in the final basis set = -435.1276461216
  Term symbol:  2 (-) A                                     R^2 =  1.39982e-13
  Excitation energy:                                             292.908006 eV
  Term symbol:  3 (-) A                                     R^2 =  1.11201e-13
  Excitation energy:                                             294.799553 eV
  Term symbol:  4 (-) A                                     R^2 =  2.52021e-13
  Excitation energy:                                             303.648083 eV
  Term symbol:  5 (-) A                                     R^2 =  3.00610e-13
  Excitation energy:                                             303.978425 eV
  Term symbol:  6 (-) A                                     R^2 =  1.63344e-13
  Excitation energy:                                             304.173831 eV
  Term symbol:  7 (-) A                                     R^2 =  3.42723e-13
  Excitation energy:                                             304.199013 eV
  Term symbol:  8 (-) A                                     R^2 =  1.52885e-13
  Excitation energy:                                             306.033618 eV
  Term symbol:  9 (-) A                                     R^2 =  1.41932e-13
  Excitation energy:                                             306.234147 eV
  Term symbol:  10 (-) A                                    R^2 =  8.95516e-14
  Excitation energy:                                             306.244328 eV
  Excited state 10 (A)                                             [converged]
  Term symbol:  11 (-) A                                    R^2 =  1.71839e-13
  Excitation energy:                                             313.372175 eV
  Excited state 11 (A)                                             [converged]
  Term symbol:  12 (-) A                                    R^2 =  1.82642e-13
  Excitation energy:                                             314.763194 eV
  Excited state 12 (A)                                             [converged]
  Term symbol:  13 (-) A                                    R^2 =  9.73887e-14
  Excitation energy:                                             314.833896 eV
  Excited state 13 (A)                                             [converged]
  Term symbol:  14 (-) A                                    R^2 =  2.74468e-13
  Excitation energy:                                             314.837318 eV
  Excited state 14 (A)                                             [converged]
  Term symbol:  15 (-) A                                    R^2 =  3.09805e-13
  Excitation energy:                                             315.316958 eV
  Excited state 15 (A)                                             [converged]
  Term symbol:  16 (-) A                                    R^2 =  2.27437e-13
  Excitation energy:                                             315.334849 eV
  Excited state 16 (A)                                             [converged]
  Term symbol:  17 (-) A                                    R^2 =  2.31169e-10
  Excitation energy:                                             318.126268 eV
  Excited state 17 (A)                                             [converged]
  Term symbol:  18 (-) A                                    R^2 =  7.88226e-12
  Excitation energy:                                             318.758231 eV
  Excited state 18 (A)                                         [not converged]
  Term symbol:  19 (-) A                                    R^2 =  1.08134e-04
  Excitation energy:                                             332.121392 eV
  Excited state 19 (A)                                         [not converged]
  Term symbol:  20 (-) A                                    R^2 =  1.54987e-03
  Excitation energy:                                             332.161082 eV
  Excited state 20 (A)                                         [not converged]
  Term symbol:  21 (-) A                                    R^2 =  9.41579e-04
  Excitation energy:                                             332.242769 eV

                    Orbital Energies (a.u.)
 --------------------------------------------------------------

 Alpha MOs
 -- Occupied --
-26.740 -26.739 -26.735 -26.628 -11.962  -2.145  -2.040  -2.034
 -1.885  -1.316  -1.219  -1.218  -1.171  -1.069  -1.059  -1.050
 -1.030  -1.021  -1.011  -0.940  -0.938

 Beta MOs
 -- Occupied --
-26.740 -26.739 -26.735 -26.580 -11.962  -2.145  -2.040  -2.034
 -1.694  -1.316  -1.219  -1.218  -1.169  -1.059  -1.058  -1.031
 -1.029  -1.011  -0.888  -0.886

          Ground-State Mulliken Net Atomic Charges

     Atom                 Charge (a.u.)    Spin (a.u.)
  --------------------------------------------------------
      1 C                     1.352678      -0.006225
      2 F                    -0.122440       0.001475
      3 F                    -0.122667       0.001369
      4 F                     0.020928       1.003618
      5 F                    -0.128499      -0.000236
  --------------------------------------------------------
  Sum of atomic charges =     1.000000

                    Cartesian Multipole Moments
 -----------------------------------------------------------------
    Charge (ESU x 10^10)
                 4.8032
    Dipole Moment (Debye)
         X      -2.2533      Y      14.1664      Z      -1.0183
       Tot      14.3806
    Quadrupole Moments (Debye-Ang)
        XX     -19.4732     XY      -6.4000     YY      22.0835
        XZ       0.0322     YZ      -3.4093     ZZ     -20.8050

 Total job time:  1636.24s(wall), 1546.17s(cpu)
        *  Thank you very much for using Q-Chem.  Have a nice day.  *
