 Q-Chem 4.3, Q-Chem, Inc., Pleasanton, CA (2015)
 Q-Chem 4.3.0 for Intel X86 Linux

User input:
--------------------------------------------------------------
$comment
XAS calculation for the 2b valence excited for water using cvs-adc(2)-x + 6-311+G* basis set
job 1 - determination of HF orbitals
$end

$molecule
0 1
6  -0.547746  2.462871  -0.110928
9  0.581569  2.360735  -0.005989
9  -1.152279  3.257547  0.807623
9  -1.189026  1.169023  0.465233
9  -1.131312  2.546793  -1.19764
$end

$rem
jobtype      sp
sym_ignore true
exchange     hf
basis        6-31G*
unrestricted true
$end

--------------------------------------------------------------

    8    -435.5593002714      6.67E-06 Convergence criterion met
 Total energy in the final basis set = -435.5593002714
 Total job time:  2.16s(wall), 10.05s(cpu)
        *  Thank you very much for using Q-Chem.  Have a nice day.  *
 Q-Chem 4.3, Q-Chem, Inc., Pleasanton, CA (2015)
 Q-Chem 4.3.0 for Intel X86 Linux

User input:
--------------------------------------------------------------

$comment
job3 - cvs-adc(2) calculation
$end

$molecule
read
$end

$rem
mem_total 3000
mem_static 1500
sym_ignore true
scf_guess read
method cvs-adc(2)
basis 6-31G*
ee_singlets 20
cc_rest_occ 5                  !only excitations from the lowest N orbitals
unrestricted  true
max_scf_cycles 200
$end
--------------------------------------------------------------

             Standard Nuclear Orientation (Angstroms)
    I     Atom           X                Y                Z
 ----------------------------------------------------------------
    1      C      -0.5477460000     2.4628710000    -0.1109280000
    2      F       0.5815690000     2.3607350000    -0.0059890000
    3      F      -1.1522790000     3.2575470000     0.8076230000
    4      F      -1.1890260000     1.1690230000     0.4652330000
    5      F      -1.1313120000     2.5467930000    -1.1976400000
 ----------------------------------------------------------------

    6    -435.5593003534      6.25E-09 Convergence criterion met
 Total energy in the final basis set = -435.5593003534
  Term symbol:  2 (-) A                                     R^2 =  1.26910e-12
  Excitation energy:                                             297.837177 eV
  Term symbol:  3 (-) A                                     R^2 =  1.54005e-12
  Excitation energy:                                             299.891574 eV
  Term symbol:  4 (-) A                                     R^2 =  1.12061e-12
  Excitation energy:                                             301.471743 eV
  Term symbol:  5 (-) A                                     R^2 =  3.44246e-12
  Excitation energy:                                             303.844336 eV
  Term symbol:  6 (-) A                                     R^2 =  1.62095e-11
  Excitation energy:                                             304.036033 eV
  Term symbol:  7 (-) A                                     R^2 =  1.73140e-11
  Excitation energy:                                             306.093661 eV
  Term symbol:  8 (-) A                                     R^2 =  1.40012e-11
  Excitation energy:                                             307.131039 eV
  Term symbol:  9 (-) A                                     R^2 =  8.06890e-11
  Excitation energy:                                             308.796679 eV
  Term symbol:  10 (-) A                                    R^2 =  9.81261e-11
  Excitation energy:                                             312.206266 eV
  Excited state 10 (A)                                             [converged]
  Term symbol:  11 (-) A                                    R^2 =  1.24898e-10
  Excitation energy:                                             313.425719 eV
  Excited state 11 (A)                                             [converged]
  Term symbol:  12 (-) A                                    R^2 =  1.70542e-10
  Excitation energy:                                             313.442743 eV
  Excited state 12 (A)                                             [converged]
  Term symbol:  13 (-) A                                    R^2 =  6.79327e-11
  Excitation energy:                                             313.887951 eV
  Excited state 13 (A)                                             [converged]
  Term symbol:  14 (-) A                                    R^2 =  4.16680e-11
  Excitation energy:                                             314.241155 eV
  Excited state 14 (A)                                             [converged]
  Term symbol:  15 (-) A                                    R^2 =  4.05753e-11
  Excitation energy:                                             314.995038 eV
  Excited state 15 (A)                                             [converged]
  Term symbol:  16 (-) A                                    R^2 =  7.82754e-11
  Excitation energy:                                             316.368992 eV
  Excited state 16 (A)                                             [converged]
  Term symbol:  17 (-) A                                    R^2 =  3.65367e-10
  Excitation energy:                                             316.706524 eV
  Excited state 17 (A)                                             [converged]
  Term symbol:  18 (-) A                                    R^2 =  1.16144e-07
  Excitation energy:                                             329.512751 eV
  Excited state 18 (A)                                             [converged]
  Term symbol:  19 (-) A                                    R^2 =  3.25604e-07
  Excitation energy:                                             329.719889 eV
  Excited state 19 (A)                                         [not converged]
  Term symbol:  20 (-) A                                    R^2 =  4.37807e-05
  Excitation energy:                                             330.523821 eV
  Excited state 20 (A)                                         [not converged]
  Term symbol:  21 (-) A                                    R^2 =  4.38697e-05
  Excitation energy:                                             330.571531 eV

                    Orbital Energies (a.u.)
 --------------------------------------------------------------

 Alpha MOs
 -- Occupied --
-26.466 -26.415 -26.353 -26.257 -11.621  -1.903  -1.775  -1.662
 -1.526  -1.044  -0.951  -0.927  -0.910  -0.787  -0.767  -0.750
 -0.705  -0.681  -0.602  -0.594  -0.582

 Beta MOs
 -- Occupied --
-26.466 -26.415 -26.353 -26.257 -11.621  -1.903  -1.775  -1.662
 -1.526  -1.044  -0.951  -0.927  -0.910  -0.787  -0.767  -0.750
 -0.705  -0.681  -0.602  -0.594  -0.582

          Ground-State Mulliken Net Atomic Charges

     Atom                 Charge (a.u.)    Spin (a.u.)
  --------------------------------------------------------
      1 C                     1.226601       0.000000
      2 F                    -0.101572       0.000000
      3 F                    -0.367665       0.000000
      4 F                    -0.519416       0.000000
      5 F                    -0.237948       0.000000
  --------------------------------------------------------
  Sum of atomic charges =     0.000000

                    Cartesian Multipole Moments
 -----------------------------------------------------------------
    Charge (ESU x 10^10)
                 0.0000
    Dipole Moment (Debye)
         X       1.9733      Y       1.5291      Z      -1.4313
       Tot       2.8776
    Quadrupole Moments (Debye-Ang)
        XX     -26.4807     XY       3.1138     YY     -19.0456
        XZ       1.3805     YZ      -3.0868     ZZ     -24.6754

 Total job time:  2510.52s(wall), 4115.63s(cpu)
        *  Thank you very much for using Q-Chem.  Have a nice day.  *
