 Q-Chem 4.3, Q-Chem, Inc., Pleasanton, CA (2015)
 Q-Chem 4.3.0 for Intel X86 Linux

User input:
--------------------------------------------------------------
$comment
XAS calculation for the 2b valence excited for water using cvs-adc(2)-x + 6-311+G* basis set
job 1 - determination of HF orbitals
$end

$molecule
0 1
6  -0.470383  2.945297  -0.225174
9  0.596915  2.425928  -0.041456
9  -1.098534  3.326415  0.733259
9  -1.34967  0.634337  0.669692
9  -1.089527  2.63445  -1.223008
$end

$rem
jobtype      sp
sym_ignore true
exchange     hf
basis        6-31G*
unrestricted true
$end

--------------------------------------------------------------

   11    -435.3679296035      6.46E-06 Convergence criterion met
 Total energy in the final basis set = -435.3679296035
 Total job time:  11.00s(wall), 12.14s(cpu)
        *  Thank you very much for using Q-Chem.  Have a nice day.  *
 Q-Chem 4.3, Q-Chem, Inc., Pleasanton, CA (2015)
 Q-Chem 4.3.0 for Intel X86 Linux

User input:
--------------------------------------------------------------

$comment
job3 - cvs-adc(2) calculation
$end

$molecule
read
$end

$rem
mem_total 3000
mem_static 1500
sym_ignore true
scf_guess read
method cvs-adc(2)
basis 6-31G*
ee_singlets 20
cc_rest_occ 5                  !only excitations from the lowest N orbitals
unrestricted  true
max_scf_cycles 200
$end
--------------------------------------------------------------

             Standard Nuclear Orientation (Angstroms)
    I     Atom           X                Y                Z
 ----------------------------------------------------------------
    1      C      -0.4703830000     2.9452970000    -0.2251740000
    2      F       0.5969150000     2.4259280000    -0.0414560000
    3      F      -1.0985340000     3.3264150000     0.7332590000
    4      F      -1.3496700000     0.6343370000     0.6696920000
    5      F      -1.0895270000     2.6344500000    -1.2230080000
 ----------------------------------------------------------------

    7    -435.3679300615      4.56E-09 Convergence criterion met
 Total energy in the final basis set = -435.3679300615
  Term symbol:  2 (-) A                                     R^2 =  1.77256e-13
  Excitation energy:                                             293.940958 eV
  Term symbol:  3 (-) A                                     R^2 =  1.66712e-13
  Excitation energy:                                             295.791036 eV
  Term symbol:  4 (-) A                                     R^2 =  3.01193e-13
  Excitation energy:                                             304.494779 eV
  Term symbol:  5 (-) A                                     R^2 =  1.76316e-13
  Excitation energy:                                             305.611769 eV
  Term symbol:  6 (-) A                                     R^2 =  1.53528e-13
  Excitation energy:                                             305.904867 eV
  Term symbol:  7 (-) A                                     R^2 =  5.25576e-13
  Excitation energy:                                             306.238026 eV
  Term symbol:  8 (-) A                                     R^2 =  2.66777e-13
  Excitation energy:                                             307.733674 eV
  Term symbol:  9 (-) A                                     R^2 =  2.33083e-13
  Excitation energy:                                             308.013120 eV
  Term symbol:  10 (-) A                                    R^2 =  3.27770e-13
  Excitation energy:                                             312.416874 eV
  Excited state 10 (A)                                             [converged]
  Term symbol:  11 (-) A                                    R^2 =  3.28603e-13
  Excitation energy:                                             314.052386 eV
  Excited state 11 (A)                                             [converged]
  Term symbol:  12 (-) A                                    R^2 =  2.19820e-13
  Excitation energy:                                             314.413731 eV
  Excited state 12 (A)                                             [converged]
  Term symbol:  13 (-) A                                    R^2 =  5.59409e-13
  Excitation energy:                                             314.441410 eV
  Excited state 13 (A)                                             [converged]
  Term symbol:  14 (-) A                                    R^2 =  1.77420e-13
  Excitation energy:                                             314.848674 eV
  Excited state 14 (A)                                             [converged]
  Term symbol:  15 (-) A                                    R^2 =  1.83406e-13
  Excitation energy:                                             314.899384 eV
  Excited state 15 (A)                                             [converged]
  Term symbol:  16 (-) A                                    R^2 =  7.39959e-13
  Excitation energy:                                             318.096919 eV
  Excited state 16 (A)                                             [converged]
  Term symbol:  17 (-) A                                    R^2 =  4.77575e-12
  Excitation energy:                                             318.839612 eV
  Excited state 17 (A)                                         [not converged]
  Term symbol:  18 (-) A                                    R^2 =  3.52045e-06
  Excitation energy:                                             332.156232 eV
  Excited state 18 (A)                                         [not converged]
  Term symbol:  19 (-) A                                    R^2 =  3.34794e-05
  Excitation energy:                                             332.281465 eV
  Excited state 19 (A)                                         [not converged]
  Term symbol:  20 (-) A                                    R^2 =  1.16597e-05
  Excitation energy:                                             332.335655 eV
  Excited state 20 (A)                                         [not converged]
  Term symbol:  21 (-) A                                    R^2 =  1.59115e-04
  Excitation energy:                                             332.451775 eV

                    Orbital Energies (a.u.)
 --------------------------------------------------------------

 Alpha MOs
 -- Occupied --
-26.547 -26.543 -26.541 -25.950 -11.748  -1.979  -1.871  -1.864
 -1.210  -1.129  -1.049  -1.048  -0.990  -0.876  -0.875  -0.845
 -0.841  -0.821  -0.318  -0.318  -0.315

 Beta MOs
 -- Occupied --
-26.547 -26.543 -26.541 -25.950 -11.748  -1.979  -1.871  -1.864
 -1.210  -1.129  -1.049  -1.048  -0.990  -0.876  -0.875  -0.845
 -0.841  -0.821  -0.318  -0.318  -0.315

          Ground-State Mulliken Net Atomic Charges

     Atom                 Charge (a.u.)    Spin (a.u.)
  --------------------------------------------------------
      1 C                     1.133827       0.000000
      2 F                    -0.074025       0.000000
      3 F                    -0.080000       0.000000
      4 F                    -0.886317       0.000000
      5 F                    -0.093485       0.000000
  --------------------------------------------------------
  Sum of atomic charges =     0.000000

                    Cartesian Multipole Moments
 -----------------------------------------------------------------
    Charge (ESU x 10^10)
                 0.0000
    Dipole Moment (Debye)
         X       3.8007      Y       9.8895      Z      -3.7773
       Tot      11.2479
    Quadrupole Moments (Debye-Ang)
        XX     -29.2921     XY      -1.7807     YY      13.8509
        XZ       4.1208     YZ      -4.8964     ZZ     -24.1783

 Total job time:  1981.71s(wall), 3232.75s(cpu)
        *  Thank you very much for using Q-Chem.  Have a nice day.  *
