 Q-Chem 4.3, Q-Chem, Inc., Pleasanton, CA (2015)
 Q-Chem 4.3.0 for Intel X86 Linux

User input:
--------------------------------------------------------------
$comment
XAS calculation for the 2b valence excited for water using cvs-adc(2)-x + 6-311+G* basis set
job 1 - determination of HF orbitals
$end

$molecule
0 1
6  -0.552346  2.970383  -0.191665
9  0.495059  2.30623  0.045747
9  -1.095465  3.500624  0.711779
9  -1.152351  0.522985  0.576059
9  -1.14258  2.678386  -1.208532
$end

$rem
jobtype      sp
sym_ignore true
exchange     hf
basis        6-31G*
unrestricted true
$end

--------------------------------------------------------------

   12    -435.3658825094      2.57E-06 Convergence criterion met
 Total energy in the final basis set = -435.3658825094
 Total job time:  3.16s(wall), 13.71s(cpu)
        *  Thank you very much for using Q-Chem.  Have a nice day.  *
 Q-Chem 4.3, Q-Chem, Inc., Pleasanton, CA (2015)
 Q-Chem 4.3.0 for Intel X86 Linux

User input:
--------------------------------------------------------------

$comment
job3 - cvs-adc(2) calculation
$end

$molecule
read
$end

$rem
mem_total 3000
mem_static 1500
sym_ignore true
scf_guess read
method cvs-adc(2)
basis 6-31G*
ee_singlets 20
cc_rest_occ 5                  !only excitations from the lowest N orbitals
unrestricted  true
max_scf_cycles 200
$end
--------------------------------------------------------------

             Standard Nuclear Orientation (Angstroms)
    I     Atom           X                Y                Z
 ----------------------------------------------------------------
    1      C      -0.5523460000     2.9703830000    -0.1916650000
    2      F       0.4950590000     2.3062300000     0.0457470000
    3      F      -1.0954650000     3.5006240000     0.7117790000
    4      F      -1.1523510000     0.5229850000     0.5760590000
    5      F      -1.1425800000     2.6783860000    -1.2085320000
 ----------------------------------------------------------------

    7    -435.3658826273      6.10E-09 Convergence criterion met
 Total energy in the final basis set = -435.3658826273
  Term symbol:  2 (-) A                                     R^2 =  1.77839e-13
  Excitation energy:                                             294.065890 eV
  Term symbol:  3 (-) A                                     R^2 =  3.24216e-13
  Excitation energy:                                             295.924290 eV
  Term symbol:  4 (-) A                                     R^2 =  6.47188e-13
  Excitation energy:                                             303.662308 eV
  Term symbol:  5 (-) A                                     R^2 =  2.14137e-13
  Excitation energy:                                             304.812062 eV
  Term symbol:  6 (-) A                                     R^2 =  2.77978e-13
  Excitation energy:                                             305.539608 eV
  Term symbol:  7 (-) A                                     R^2 =  2.46902e-13
  Excitation energy:                                             306.540284 eV
  Term symbol:  8 (-) A                                     R^2 =  2.30410e-13
  Excitation energy:                                             306.807994 eV
  Term symbol:  9 (-) A                                     R^2 =  1.15540e-13
  Excitation energy:                                             308.632482 eV
  Term symbol:  10 (-) A                                    R^2 =  7.02960e-13
  Excitation energy:                                             312.501772 eV
  Excited state 10 (A)                                             [converged]
  Term symbol:  11 (-) A                                    R^2 =  5.11240e-13
  Excitation energy:                                             314.050210 eV
  Excited state 11 (A)                                             [converged]
  Term symbol:  12 (-) A                                    R^2 =  1.23764e-13
  Excitation energy:                                             314.317747 eV
  Excited state 12 (A)                                             [converged]
  Term symbol:  13 (-) A                                    R^2 =  3.59666e-13
  Excitation energy:                                             314.717796 eV
  Excited state 13 (A)                                             [converged]
  Term symbol:  14 (-) A                                    R^2 =  4.03763e-13
  Excitation energy:                                             314.747985 eV
  Excited state 14 (A)                                             [converged]
  Term symbol:  15 (-) A                                    R^2 =  5.71096e-13
  Excitation energy:                                             315.226001 eV
  Excited state 15 (A)                                             [converged]
  Term symbol:  16 (-) A                                    R^2 =  1.38883e-10
  Excitation energy:                                             317.918610 eV
  Excited state 16 (A)                                             [converged]
  Term symbol:  17 (-) A                                    R^2 =  2.19855e-11
  Excitation energy:                                             318.674309 eV
  Excited state 17 (A)                                         [not converged]
  Term symbol:  18 (-) A                                    R^2 =  3.84329e-05
  Excitation energy:                                             326.761846 eV
  Excited state 18 (A)                                         [not converged]
  Term symbol:  19 (-) A                                    R^2 =  3.20483e-06
  Excitation energy:                                             326.762120 eV
  Excited state 19 (A)                                             [converged]
  Term symbol:  20 (-) A                                    R^2 =  1.00082e-08
  Excitation energy:                                             326.854063 eV
  Excited state 20 (A)                                             [converged]
  Term symbol:  21 (-) A                                    R^2 =  2.49423e-10
  Excitation energy:                                             326.854467 eV

                    Orbital Energies (a.u.)
 --------------------------------------------------------------

 Alpha MOs
 -- Occupied --
-26.571 -26.548 -26.510 -25.951 -11.750  -1.984  -1.888  -1.823
 -1.211  -1.133  -1.053  -1.036  -0.992  -0.878  -0.867  -0.861
 -0.816  -0.810  -0.320  -0.319  -0.315

 Beta MOs
 -- Occupied --
-26.571 -26.548 -26.510 -25.951 -11.750  -1.984  -1.888  -1.823
 -1.211  -1.133  -1.053  -1.036  -0.992  -0.878  -0.867  -0.861
 -0.816  -0.810  -0.320  -0.319  -0.315

          Ground-State Mulliken Net Atomic Charges

     Atom                 Charge (a.u.)    Spin (a.u.)
  --------------------------------------------------------
      1 C                     1.146145       0.000000
      2 F                    -0.121849       0.000000
      3 F                    -0.054607       0.000000
      4 F                    -0.882638       0.000000
      5 F                    -0.087051       0.000000
  --------------------------------------------------------
  Sum of atomic charges =     0.000000

                    Cartesian Multipole Moments
 -----------------------------------------------------------------
    Charge (ESU x 10^10)
                 0.0000
    Dipole Moment (Debye)
         X       2.3853      Y      10.4972      Z      -3.2031
       Tot      11.2312
    Quadrupole Moments (Debye-Ang)
        XX     -26.8074     XY      -4.6671     YY      15.3627
        XZ       3.1023     YZ      -3.8017     ZZ     -23.6673

 Total job time:  2041.57s(wall), 3296.06s(cpu)
        *  Thank you very much for using Q-Chem.  Have a nice day.  *
