 Q-Chem 4.3, Q-Chem, Inc., Pleasanton, CA (2015)
 Q-Chem 4.3.0 for Intel X86 Linux

User input:
--------------------------------------------------------------
$comment
XAS calculation for the 2b valence excited for water using cvs-adc(2)-x + 6-311+G* basis set
job 1 - determination of HF orbitals
$end

$molecule
0 1
6  -0.446934  2.965916  -0.259345
9  0.67917  2.441914  -0.063686
9  -1.114618  3.16868  0.769828
9  -1.438345  0.794283  0.692696
9  -1.068916  2.593584  -1.236893
$end

$rem
jobtype      sp
sym_ignore true
exchange     hf
basis        6-31G*
unrestricted true
$end

--------------------------------------------------------------

   12    -435.3477539999      6.17E-06 Convergence criterion met
 Total energy in the final basis set = -435.3477539999
 Total job time:  13.51s(wall), 15.04s(cpu)
        *  Thank you very much for using Q-Chem.  Have a nice day.  *
 Q-Chem 4.3, Q-Chem, Inc., Pleasanton, CA (2015)
 Q-Chem 4.3.0 for Intel X86 Linux

User input:
--------------------------------------------------------------

$comment
job3 - cvs-adc(2) calculation
$end

$molecule
read
$end

$rem
mem_total 3000
mem_static 1500
sym_ignore true
scf_guess read
method cvs-adc(2)
basis 6-31G*
ee_singlets 20
cc_rest_occ 5                  !only excitations from the lowest N orbitals
unrestricted  true
max_scf_cycles 200
$end
--------------------------------------------------------------

             Standard Nuclear Orientation (Angstroms)
    I     Atom           X                Y                Z
 ----------------------------------------------------------------
    1      C      -0.4469340000     2.9659160000    -0.2593450000
    2      F       0.6791700000     2.4419140000    -0.0636860000
    3      F      -1.1146180000     3.1686800000     0.7698280000
    4      F      -1.4383450000     0.7942830000     0.6926960000
    5      F      -1.0689160000     2.5935840000    -1.2368930000
 ----------------------------------------------------------------

    9    -435.3477544396      9.86E-09 Convergence criterion met
 Total energy in the final basis set = -435.3477544396
  Term symbol:  2 (-) A                                     R^2 =  8.21603e-12
  Excitation energy:                                             293.228868 eV
  Term symbol:  3 (-) A                                     R^2 =  3.00293e-11
  Excitation energy:                                             295.021696 eV
  Term symbol:  4 (-) A                                     R^2 =  2.33979e-10
  Excitation energy:                                             303.712635 eV
  Term symbol:  5 (-) A                                     R^2 =  3.93578e-11
  Excitation energy:                                             304.318569 eV
  Term symbol:  6 (-) A                                     R^2 =  1.07155e-10
  Excitation energy:                                             304.914479 eV
  Term symbol:  7 (-) A                                     R^2 =  2.02856e-11
  Excitation energy:                                             305.779748 eV
  Term symbol:  8 (-) A                                     R^2 =  7.81914e-11
  Excitation energy:                                             306.337971 eV
  Term symbol:  9 (-) A                                     R^2 =  3.13050e-11
  Excitation energy:                                             306.880419 eV
  Term symbol:  10 (-) A                                    R^2 =  2.57398e-11
  Excitation energy:                                             312.256564 eV
  Excited state 10 (A)                                             [converged]
  Term symbol:  11 (-) A                                    R^2 =  2.15278e-10
  Excitation energy:                                             313.778754 eV
  Excited state 11 (A)                                             [converged]
  Term symbol:  12 (-) A                                    R^2 =  2.42613e-10
  Excitation energy:                                             313.959964 eV
  Excited state 12 (A)                                             [converged]
  Term symbol:  13 (-) A                                    R^2 =  6.50227e-11
  Excitation energy:                                             314.116541 eV
  Excited state 13 (A)                                             [converged]
  Term symbol:  14 (-) A                                    R^2 =  4.50790e-11
  Excitation energy:                                             314.457332 eV
  Excited state 14 (A)                                             [converged]
  Term symbol:  15 (-) A                                    R^2 =  3.61452e-11
  Excitation energy:                                             314.636970 eV
  Excited state 15 (A)                                             [converged]
  Term symbol:  16 (-) A                                    R^2 =  4.99229e-09
  Excitation energy:                                             318.386460 eV
  Excited state 16 (A)                                             [converged]
  Term symbol:  17 (-) A                                    R^2 =  1.33451e-11
  Excitation energy:                                             319.001971 eV
  Excited state 17 (A)                                         [not converged]
  Term symbol:  18 (-) A                                    R^2 =  2.57398e-01
  Excitation energy:                                             324.626593 eV
  Excited state 18 (A)                                         [not converged]
  Term symbol:  19 (-) A                                    R^2 =  4.36708e-01
  Excitation energy:                                             326.039137 eV
  Excited state 19 (A)                                         [not converged]
  Term symbol:  20 (-) A                                    R^2 =  4.65366e-05
  Excitation energy:                                             331.943787 eV
  Excited state 20 (A)                                         [not converged]
  Term symbol:  21 (-) A                                    R^2 =  2.80994e-05
  Excitation energy:                                             332.095604 eV

                    Orbital Energies (a.u.)
 --------------------------------------------------------------

 Alpha MOs
 -- Occupied --
-26.545 -26.531 -26.524 -25.955 -11.746  -1.948  -1.847  -1.827
 -1.217  -1.116  -1.024  -1.019  -0.963  -0.858  -0.856  -0.832
 -0.815  -0.807  -0.325  -0.324  -0.319

 Beta MOs
 -- Occupied --
-26.545 -26.531 -26.524 -25.955 -11.746  -1.948  -1.847  -1.827
 -1.217  -1.116  -1.024  -1.019  -0.963  -0.858  -0.856  -0.832
 -0.815  -0.807  -0.325  -0.324  -0.319

          Ground-State Mulliken Net Atomic Charges

     Atom                 Charge (a.u.)    Spin (a.u.)
  --------------------------------------------------------
      1 C                     1.185168       0.000000
      2 F                    -0.137196       0.000000
      3 F                    -0.083611       0.000000
      4 F                    -0.882588       0.000000
      5 F                    -0.081773       0.000000
  --------------------------------------------------------
  Sum of atomic charges =     0.000000

                    Cartesian Multipole Moments
 -----------------------------------------------------------------
    Charge (ESU x 10^10)
                 0.0000
    Dipole Moment (Debye)
         X       3.9949      Y       9.2396      Z      -4.0572
       Tot      10.8531
    Quadrupole Moments (Debye-Ang)
        XX     -30.3599     XY      -0.9344     YY      13.1048
        XZ       4.5917     YZ      -6.0717     ZZ     -24.1829

 Total job time:  2226.74s(wall), 3613.15s(cpu)
        *  Thank you very much for using Q-Chem.  Have a nice day.  *
