 Q-Chem 4.3, Q-Chem, Inc., Pleasanton, CA (2015)
 Q-Chem 4.3.0 for Intel X86 Linux

User input:
--------------------------------------------------------------
$comment
XAS calculation for the 2b valence excited for water using cvs-adc(2)-x + 6-311+G* basis set
job 1 - determination of HF orbitals
$end

$molecule
0 1
6  -0.534196  2.660272  -0.172607
9  0.633773  2.367641  -0.015613
9  -1.153457  3.194629  0.808593
9  -1.258597  1.120534  0.519491
9  -1.124408  2.53216  -1.203826
$end

$rem
jobtype      sp
sym_ignore true
exchange     hf
basis        6-31G*
unrestricted true
$end

--------------------------------------------------------------

    8    -435.4828298839      8.64E-06 Convergence criterion met
 Total energy in the final basis set = -435.4828298839
 Total job time:  2.27s(wall), 9.89s(cpu)
        *  Thank you very much for using Q-Chem.  Have a nice day.  *
 Q-Chem 4.3, Q-Chem, Inc., Pleasanton, CA (2015)
 Q-Chem 4.3.0 for Intel X86 Linux

User input:
--------------------------------------------------------------

$comment
job3 - cvs-adc(2) calculation
$end

$molecule
read
$end

$rem
mem_total 3000
mem_static 1500
sym_ignore true
scf_guess read
method cvs-adc(2)
basis 6-31G*
ee_singlets 20
cc_rest_occ 5                  !only excitations from the lowest N orbitals
unrestricted  true
max_scf_cycles 200
$end
--------------------------------------------------------------

             Standard Nuclear Orientation (Angstroms)
    I     Atom           X                Y                Z
 ----------------------------------------------------------------
    1      C      -0.5341960000     2.6602720000    -0.1726070000
    2      F       0.6337730000     2.3676410000    -0.0156130000
    3      F      -1.1534570000     3.1946290000     0.8085930000
    4      F      -1.2585970000     1.1205340000     0.5194910000
    5      F      -1.1244080000     2.5321600000    -1.2038260000
 ----------------------------------------------------------------

    7    -435.4828298810      3.55E-09 Convergence criterion met
 Total energy in the final basis set = -435.4828298810
  Term symbol:  2 (-) A                                     R^2 =  9.13132e-14
  Excitation energy:                                             295.526633 eV
  Term symbol:  3 (-) A                                     R^2 =  1.41987e-13
  Excitation energy:                                             297.407910 eV
  Term symbol:  4 (-) A                                     R^2 =  2.67663e-13
  Excitation energy:                                             303.203237 eV
  Term symbol:  5 (-) A                                     R^2 =  6.61796e-13
  Excitation energy:                                             304.354299 eV
  Term symbol:  6 (-) A                                     R^2 =  1.17514e-13
  Excitation energy:                                             305.330004 eV
  Term symbol:  7 (-) A                                     R^2 =  2.28061e-13
  Excitation energy:                                             306.299481 eV
  Term symbol:  8 (-) A                                     R^2 =  1.66422e-13
  Excitation energy:                                             306.386340 eV
  Term symbol:  9 (-) A                                     R^2 =  1.90352e-13
  Excitation energy:                                             308.487084 eV
  Term symbol:  10 (-) A                                    R^2 =  3.05656e-13
  Excitation energy:                                             311.788853 eV
  Excited state 10 (A)                                             [converged]
  Term symbol:  11 (-) A                                    R^2 =  2.28761e-13
  Excitation energy:                                             313.285387 eV
  Excited state 11 (A)                                             [converged]
  Term symbol:  12 (-) A                                    R^2 =  1.17171e-13
  Excitation energy:                                             314.130708 eV
  Excited state 12 (A)                                             [converged]
  Term symbol:  13 (-) A                                    R^2 =  1.22769e-13
  Excitation energy:                                             314.528737 eV
  Excited state 13 (A)                                             [converged]
  Term symbol:  14 (-) A                                    R^2 =  5.01680e-13
  Excitation energy:                                             314.579008 eV
  Excited state 14 (A)                                             [converged]
  Term symbol:  15 (-) A                                    R^2 =  2.54142e-13
  Excitation energy:                                             315.007414 eV
  Excited state 15 (A)                                             [converged]
  Term symbol:  16 (-) A                                    R^2 =  2.07640e-12
  Excitation energy:                                             318.488524 eV
  Excited state 16 (A)                                             [converged]
  Term symbol:  17 (-) A                                    R^2 =  2.35030e-12
  Excitation energy:                                             318.943453 eV
  Excited state 17 (A)                                             [converged]
  Term symbol:  18 (-) A                                    R^2 =  6.81714e-09
  Excitation energy:                                             331.058772 eV
  Excited state 18 (A)                                             [converged]
  Term symbol:  19 (-) A                                    R^2 =  9.21460e-08
  Excitation energy:                                             331.236532 eV
  Excited state 19 (A)                                             [converged]
  Term symbol:  20 (-) A                                    R^2 =  7.79406e-08
  Excitation energy:                                             331.272476 eV
  Excited state 20 (A)                                             [converged]
  Term symbol:  21 (-) A                                    R^2 =  5.12520e-07
  Excitation energy:                                             331.387771 eV

                    Orbital Energies (a.u.)
 --------------------------------------------------------------

 Alpha MOs
 -- Occupied --
-26.473 -26.473 -26.421 -26.124 -11.665  -1.894  -1.812  -1.744
 -1.388  -1.058  -0.978  -0.958  -0.912  -0.807  -0.799  -0.794
 -0.761  -0.738  -0.480  -0.477  -0.467

 Beta MOs
 -- Occupied --
-26.473 -26.473 -26.421 -26.124 -11.665  -1.894  -1.812  -1.744
 -1.388  -1.058  -0.978  -0.958  -0.912  -0.807  -0.799  -0.794
 -0.761  -0.738  -0.480  -0.477  -0.467

          Ground-State Mulliken Net Atomic Charges

     Atom                 Charge (a.u.)    Spin (a.u.)
  --------------------------------------------------------
      1 C                     1.210085       0.000000
      2 F                    -0.167639       0.000000
      3 F                    -0.230610       0.000000
      4 F                    -0.673570       0.000000
      5 F                    -0.138265       0.000000
  --------------------------------------------------------
  Sum of atomic charges =     0.000000

                    Cartesian Multipole Moments
 -----------------------------------------------------------------
    Charge (ESU x 10^10)
                 0.0000
    Dipole Moment (Debye)
         X       2.2637      Y       4.3734      Z      -2.3818
       Tot       5.4702
    Quadrupole Moments (Debye-Ang)
        XX     -27.2602     XY       0.8378     YY      -6.4822
        XZ       2.3932     YZ      -4.4478     ZZ     -24.0257

 Total job time:  2006.62s(wall), 3297.40s(cpu)
        *  Thank you very much for using Q-Chem.  Have a nice day.  *
