 Q-Chem 4.3, Q-Chem, Inc., Pleasanton, CA (2015)
 Q-Chem 4.3.0 for Intel X86 Linux

User input:
--------------------------------------------------------------
$comment
XAS calculation for the 2b valence excited for water using cvs-adc(2)-x + 6-311+G* basis set
job 1 - determination of HF orbitals
$end

$molecule
0 1
6  -0.344705  2.909102  -0.27874
9  0.708861  2.59758  -0.126476
9  -1.120434  3.113705  0.784056
9  -1.58526  0.751111  0.788564
9  -1.038382  2.630616  -1.268472
$end

$rem
jobtype      sp
sym_ignore true
exchange     hf
basis        6-31G*
unrestricted true
$end

--------------------------------------------------------------

   12    -435.3202687868      4.35E-06 Convergence criterion met
 Total energy in the final basis set = -435.3202687868
 Total job time:  3.20s(wall), 15.26s(cpu)
        *  Thank you very much for using Q-Chem.  Have a nice day.  *
 Q-Chem 4.3, Q-Chem, Inc., Pleasanton, CA (2015)
 Q-Chem 4.3.0 for Intel X86 Linux

User input:
--------------------------------------------------------------

$comment
job3 - cvs-adc(2) calculation
$end

$molecule
read
$end

$rem
mem_total 3000
mem_static 1500
sym_ignore true
scf_guess read
method cvs-adc(2)
basis 6-31G*
ee_singlets 20
cc_rest_occ 5                  !only excitations from the lowest N orbitals
unrestricted  true
max_scf_cycles 200
$end
--------------------------------------------------------------

             Standard Nuclear Orientation (Angstroms)
    I     Atom           X                Y                Z
 ----------------------------------------------------------------
    1      C      -0.3447050000     2.9091020000    -0.2787400000
    2      F       0.7088610000     2.5975800000    -0.1264760000
    3      F      -1.1204340000     3.1137050000     0.7840560000
    4      F      -1.5852600000     0.7511110000     0.7885640000
    5      F      -1.0383820000     2.6306160000    -1.2684720000
 ----------------------------------------------------------------

    8    -435.3202688521      4.93E-09 Convergence criterion met
 Total energy in the final basis set = -435.3202688521
  Term symbol:  2 (-) A                                     R^2 =  1.11171e-09
  Excitation energy:                                             294.012368 eV
  Term symbol:  3 (-) A                                     R^2 =  1.89711e-09
  Excitation energy:                                             295.852125 eV
  Term symbol:  4 (-) A                                     R^2 =  3.85651e-10
  Excitation energy:                                             302.414925 eV
  Term symbol:  5 (-) A                                     R^2 =  1.44488e-10
  Excitation energy:                                             303.921809 eV
  Term symbol:  6 (-) A                                     R^2 =  2.29605e-10
  Excitation energy:                                             304.531487 eV
  Term symbol:  7 (-) A                                     R^2 =  1.15676e-10
  Excitation energy:                                             305.778776 eV
  Term symbol:  8 (-) A                                     R^2 =  9.21283e-11
  Excitation energy:                                             308.224142 eV
  Term symbol:  9 (-) A                                     R^2 =  2.57104e-10
  Excitation energy:                                             309.771611 eV
  Term symbol:  10 (-) A                                    R^2 =  1.16695e-09
  Excitation energy:                                             312.852944 eV
  Excited state 10 (A)                                             [converged]
  Term symbol:  11 (-) A                                    R^2 =  1.43558e-10
  Excitation energy:                                             313.968325 eV
  Excited state 11 (A)                                             [converged]
  Term symbol:  12 (-) A                                    R^2 =  1.77883e-09
  Excitation energy:                                             314.162916 eV
  Excited state 12 (A)                                             [converged]
  Term symbol:  13 (-) A                                    R^2 =  2.37154e-10
  Excitation energy:                                             314.405027 eV
  Excited state 13 (A)                                             [converged]
  Term symbol:  14 (-) A                                    R^2 =  1.61875e-10
  Excitation energy:                                             314.837129 eV
  Excited state 14 (A)                                             [converged]
  Term symbol:  15 (-) A                                    R^2 =  2.13285e-10
  Excitation energy:                                             315.898027 eV
  Excited state 15 (A)                                             [converged]
  Term symbol:  16 (-) A                                    R^2 =  4.90398e-10
  Excitation energy:                                             317.630131 eV
  Excited state 16 (A)                                             [converged]
  Term symbol:  17 (-) A                                    R^2 =  1.42291e-10
  Excitation energy:                                             318.396350 eV
  Excited state 17 (A)                                         [not converged]
  Term symbol:  18 (-) A                                    R^2 =  7.36181e-03
  Excitation energy:                                             325.994667 eV
  Excited state 18 (A)                                         [not converged]
  Term symbol:  19 (-) A                                    R^2 =  2.89298e-02
  Excitation energy:                                             326.001340 eV
  Excited state 19 (A)                                         [not converged]
  Term symbol:  20 (-) A                                    R^2 =  3.58917e-02
  Excitation energy:                                             326.076270 eV
  Excited state 20 (A)                                         [not converged]
  Term symbol:  21 (-) A                                    R^2 =  1.13375e-01
  Excitation energy:                                             326.111133 eV

                    Orbital Energies (a.u.)
 --------------------------------------------------------------

 Alpha MOs
 -- Occupied --
-26.617 -26.539 -26.481 -25.938 -11.754  -2.047  -1.881  -1.769
 -1.199  -1.164  -1.067  -1.039  -1.024  -0.881  -0.865  -0.842
 -0.786  -0.783  -0.308  -0.305  -0.305

 Beta MOs
 -- Occupied --
-26.617 -26.539 -26.481 -25.938 -11.754  -2.047  -1.881  -1.769
 -1.199  -1.164  -1.067  -1.039  -1.024  -0.881  -0.865  -0.842
 -0.786  -0.783  -0.308  -0.305  -0.305

          Ground-State Mulliken Net Atomic Charges

     Atom                 Charge (a.u.)    Spin (a.u.)
  --------------------------------------------------------
      1 C                     1.119674       0.000000
      2 F                     0.055849       0.000000
      3 F                    -0.165470       0.000000
      4 F                    -0.896396       0.000000
      5 F                    -0.113657       0.000000
  --------------------------------------------------------
  Sum of atomic charges =     0.000000

                    Cartesian Multipole Moments
 -----------------------------------------------------------------
    Charge (ESU x 10^10)
                 0.0000
    Dipole Moment (Debye)
         X       6.0175      Y       9.0907      Z      -4.7251
       Tot      11.8819
    Quadrupole Moments (Debye-Ang)
        XX     -32.7337     XY       3.2235     YY      11.0363
        XZ       5.6295     YZ      -6.8839     ZZ     -25.0233

 Total job time:  2171.09s(wall), 3561.42s(cpu)
        *  Thank you very much for using Q-Chem.  Have a nice day.  *
