 Q-Chem 4.3, Q-Chem, Inc., Pleasanton, CA (2015)
 Q-Chem 4.3.0 for Intel X86 Linux

User input:
--------------------------------------------------------------
$comment
XAS calculation for the 2b valence excited for water using cvs-adc(2)-x + 6-311+G* basis set
job 1 - determination of HF orbitals
$end

$molecule
0 1
6  -0.493351  2.664542  -0.206522
9  0.800831  2.731998  -0.191859
9  -1.032583  3.317641  0.71554
9  -1.73407  0.318143  0.955388
9  -0.945415  2.818914  -1.350233
$end

$rem
jobtype      sp
sym_ignore true
exchange     hf
basis        6-31G*
unrestricted true
$end

--------------------------------------------------------------

   12    -435.3483645205      4.71E-06 Convergence criterion met
 Total energy in the final basis set = -435.3483645205
 Total job time:  4.52s(wall), 13.57s(cpu)
        *  Thank you very much for using Q-Chem.  Have a nice day.  *
 Q-Chem 4.3, Q-Chem, Inc., Pleasanton, CA (2015)
 Q-Chem 4.3.0 for Intel X86 Linux

User input:
--------------------------------------------------------------

$comment
job3 - cvs-adc(2) calculation
$end

$molecule
read
$end

$rem
mem_total 3000
mem_static 1500
sym_ignore true
scf_guess read
method cvs-adc(2)
basis 6-31G*
ee_singlets 20
cc_rest_occ 5                  !only excitations from the lowest N orbitals
unrestricted  true
max_scf_cycles 200
$end
--------------------------------------------------------------

             Standard Nuclear Orientation (Angstroms)
    I     Atom           X                Y                Z
 ----------------------------------------------------------------
    1      C      -0.4933510000     2.6645420000    -0.2065220000
    2      F       0.8008310000     2.7319980000    -0.1918590000
    3      F      -1.0325830000     3.3176410000     0.7155400000
    4      F      -1.7340700000     0.3181430000     0.9553880000
    5      F      -0.9454150000     2.8189140000    -1.3502330000
 ----------------------------------------------------------------

    9    -435.3483646717      7.14E-09 Convergence criterion met
 Total energy in the final basis set = -435.3483646717
  Term symbol:  2 (-) A                                     R^2 =  4.30038e-14
  Excitation energy:                                             294.062148 eV
  Term symbol:  3 (-) A                                     R^2 =  4.49521e-14
  Excitation energy:                                             295.887985 eV
  Term symbol:  4 (-) A                                     R^2 =  7.80612e-14
  Excitation energy:                                             302.394474 eV
  Term symbol:  5 (-) A                                     R^2 =  2.36279e-13
  Excitation energy:                                             303.642618 eV
  Term symbol:  6 (-) A                                     R^2 =  1.94416e-13
  Excitation energy:                                             304.023644 eV
  Term symbol:  7 (-) A                                     R^2 =  9.25431e-14
  Excitation energy:                                             304.475352 eV
  Term symbol:  8 (-) A                                     R^2 =  1.50445e-13
  Excitation energy:                                             305.569565 eV
  Term symbol:  9 (-) A                                     R^2 =  7.41220e-14
  Excitation energy:                                             306.032403 eV
  Term symbol:  10 (-) A                                    R^2 =  2.68328e-13
  Excitation energy:                                             313.233025 eV
  Excited state 10 (A)                                             [converged]
  Term symbol:  11 (-) A                                    R^2 =  9.97653e-14
  Excitation energy:                                             313.562310 eV
  Excited state 11 (A)                                             [converged]
  Term symbol:  12 (-) A                                    R^2 =  3.54138e-13
  Excitation energy:                                             313.871075 eV
  Excited state 12 (A)                                             [converged]
  Term symbol:  13 (-) A                                    R^2 =  7.02290e-13
  Excitation energy:                                             313.930140 eV
  Excited state 13 (A)                                             [converged]
  Term symbol:  14 (-) A                                    R^2 =  2.63998e-13
  Excitation energy:                                             314.334852 eV
  Excited state 14 (A)                                             [converged]
  Term symbol:  15 (-) A                                    R^2 =  1.75623e-13
  Excitation energy:                                             314.410444 eV
  Excited state 15 (A)                                             [converged]
  Term symbol:  16 (-) A                                    R^2 =  7.26558e-13
  Excitation energy:                                             314.459397 eV
  Excited state 16 (A)                                             [converged]
  Term symbol:  17 (-) A                                    R^2 =  7.32236e-13
  Excitation energy:                                             315.483983 eV
  Excited state 17 (A)                                             [converged]
  Term symbol:  18 (-) A                                    R^2 =  1.45340e-12
  Excitation energy:                                             325.515485 eV
  Excited state 18 (A)                                             [converged]
  Term symbol:  19 (-) A                                    R^2 =  9.37005e-13
  Excitation energy:                                             325.591621 eV
  Excited state 19 (A)                                         [not converged]
  Term symbol:  20 (-) A                                    R^2 =  1.09731e-04
  Excitation energy:                                             331.304145 eV
  Excited state 20 (A)                                         [not converged]
  Term symbol:  21 (-) A                                    R^2 =  1.72615e-04
  Excitation energy:                                             331.432494 eV

                    Orbital Energies (a.u.)
 --------------------------------------------------------------

 Alpha MOs
 -- Occupied --
-26.525 -26.510 -26.504 -26.091 -11.730  -1.923  -1.826  -1.798
 -1.312  -1.103  -1.002  -0.995  -0.945  -0.852  -0.840  -0.819
 -0.808  -0.793  -0.430  -0.430  -0.359

 Beta MOs
 -- Occupied --
-26.525 -26.510 -26.504 -26.091 -11.730  -1.923  -1.826  -1.798
 -1.312  -1.103  -1.002  -0.995  -0.945  -0.852  -0.840  -0.819
 -0.808  -0.793  -0.430  -0.430  -0.359

          Ground-State Mulliken Net Atomic Charges

     Atom                 Charge (a.u.)    Spin (a.u.)
  --------------------------------------------------------
      1 C                     1.140447       0.000000
      2 F                    -0.213665       0.000000
      3 F                    -0.149181       0.000000
      4 F                    -0.630396       0.000000
      5 F                    -0.147205       0.000000
  --------------------------------------------------------
  Sum of atomic charges =     0.000000

                    Cartesian Multipole Moments
 -----------------------------------------------------------------
    Charge (ESU x 10^10)
                 0.0000
    Dipole Moment (Debye)
         X       3.4321      Y       6.8392      Z      -3.4904
       Tot       8.4105
    Quadrupole Moments (Debye-Ang)
        XX     -31.5069     XY      -2.6710     YY      -2.4743
        XZ       5.1880     YZ      -2.8596     ZZ     -25.7587

 Total job time:  2015.11s(wall), 3279.78s(cpu)
        *  Thank you very much for using Q-Chem.  Have a nice day.  *
