 Q-Chem 4.3, Q-Chem, Inc., Pleasanton, CA (2015)
 Q-Chem 4.3.0 for Intel X86 Linux

User input:
--------------------------------------------------------------
$comment
XAS calculation for the 2b valence excited for water using cvs-adc(2)-x + 6-311+G* basis set
job 1 - determination of HF orbitals
$end

$molecule
0 1
6  -0.66962  2.867947  -0.127502
9  0.528766  2.454091  0.019376
9  -1.009975  3.785994  0.60594
9  -1.239203  -0.083746  0.737745
9  -1.100415  2.915599  -1.279119
$end

$rem
jobtype      sp
sym_ignore true
exchange     hf
basis        6-31G*
unrestricted true
$end

--------------------------------------------------------------

   14    -435.3325612259      4.85E-06 Convergence criterion met
 Total energy in the final basis set = -435.3325612259
 Total job time:  3.28s(wall), 10.86s(cpu)
        *  Thank you very much for using Q-Chem.  Have a nice day.  *
 Q-Chem 4.3, Q-Chem, Inc., Pleasanton, CA (2015)
 Q-Chem 4.3.0 for Intel X86 Linux

User input:
--------------------------------------------------------------

$comment
job3 - cvs-adc(2) calculation
$end

$molecule
read
$end

$rem
mem_total 3000
mem_static 1500
sym_ignore true
scf_guess read
method cvs-adc(2)
basis 6-31G*
ee_singlets 20
cc_rest_occ 1                  !only excitations from the lowest N orbitals
unrestricted  true
max_scf_cycles 200
$end
--------------------------------------------------------------

             Standard Nuclear Orientation (Angstroms)
    I     Atom           X                Y                Z
 ----------------------------------------------------------------
    1      C      -0.6696200000     2.8679470000    -0.1275020000
    2      F       0.5287660000     2.4540910000     0.0193760000
    3      F      -1.0099750000     3.7859940000     0.6059400000
    4      F      -1.2392030000    -0.0837460000     0.7377450000
    5      F      -1.1004150000     2.9155990000    -1.2791190000
 ----------------------------------------------------------------

    7    -435.3325613137      7.92E-09 Convergence criterion met
 Total energy in the final basis set = -435.3325613137
  Term symbol:  2 (-) A                                     R^2 =  2.30487e-13
  Excitation energy:                                             690.603191 eV
  Term symbol:  3 (-) A                                     R^2 =  1.96825e-13
  Excitation energy:                                             690.818731 eV
  Term symbol:  4 (-) A                                     R^2 =  2.08770e-13
  Excitation energy:                                             697.176943 eV
  Term symbol:  5 (-) A                                     R^2 =  1.54328e-13
  Excitation energy:                                             698.116821 eV
  Term symbol:  6 (-) A                                     R^2 =  5.68665e-13
  Excitation energy:                                             700.727500 eV
  Term symbol:  7 (-) A                                     R^2 =  5.42200e-13
  Excitation energy:                                             700.972763 eV
  Term symbol:  8 (-) A                                     R^2 =  5.83371e-13
  Excitation energy:                                             701.185854 eV
  Term symbol:  9 (-) A                                     R^2 =  3.39850e-13
  Excitation energy:                                             701.475072 eV
  Term symbol:  10 (-) A                                    R^2 =  4.52374e-13
  Excitation energy:                                             705.899052 eV
  Excited state 10 (A)                                             [converged]
  Term symbol:  11 (-) A                                    R^2 =  3.49910e-13
  Excitation energy:                                             706.318438 eV
  Excited state 11 (A)                                             [converged]
  Term symbol:  12 (-) A                                    R^2 =  2.45224e-13
  Excitation energy:                                             706.951464 eV
  Excited state 12 (A)                                             [converged]
  Term symbol:  13 (-) A                                    R^2 =  3.53839e-13
  Excitation energy:                                             706.998070 eV
  Excited state 13 (A)                                             [converged]
  Term symbol:  14 (-) A                                    R^2 =  6.09283e-13
  Excitation energy:                                             707.610164 eV
  Excited state 14 (A)                                             [converged]
  Term symbol:  15 (-) A                                    R^2 =  4.52522e-13
  Excitation energy:                                             707.635158 eV
  Excited state 15 (A)                                             [converged]
  Term symbol:  16 (-) A                                    R^2 =  2.83314e-13
  Excitation energy:                                             709.341995 eV
  Excited state 16 (A)                                             [converged]
  Term symbol:  17 (-) A                                    R^2 =  4.75239e-13
  Excitation energy:                                             709.342269 eV
  Excited state 17 (A)                                             [converged]
  Term symbol:  18 (-) A                                    R^2 =  1.39745e-09
  Excitation energy:                                             720.650450 eV
  Excited state 18 (A)                                             [converged]
  Term symbol:  19 (-) A                                    R^2 =  7.16258e-07
  Excitation energy:                                             721.788109 eV
  Excited state 19 (A)                                             [converged]
  Term symbol:  20 (-) A                                    R^2 =  2.53089e-08
  Excitation energy:                                             721.987192 eV
  Excited state 20 (A)                                             [converged]
  Term symbol:  21 (-) A                                    R^2 =  2.72370e-07
  Excitation energy:                                             722.646875 eV

                    Orbital Energies (a.u.)
 --------------------------------------------------------------

 Alpha MOs
 -- Occupied --
-26.554 -26.547 -26.518 -26.024 -11.749  -1.962  -1.864  -1.825
 -1.259  -1.130  -1.036  -1.027  -0.979  -0.874  -0.870  -0.851
 -0.827  -0.816  -0.374  -0.374  -0.319

 Beta MOs
 -- Occupied --
-26.554 -26.547 -26.518 -26.024 -11.749  -1.962  -1.864  -1.825
 -1.259  -1.130  -1.036  -1.027  -0.979  -0.874  -0.870  -0.851
 -0.827  -0.816  -0.374  -0.374  -0.319

          Ground-State Mulliken Net Atomic Charges

     Atom                 Charge (a.u.)    Spin (a.u.)
  --------------------------------------------------------
      1 C                     1.150749       0.000000
      2 F                    -0.163749       0.000000
      3 F                    -0.129288       0.000000
      4 F                    -0.728327       0.000000
      5 F                    -0.129385       0.000000
  --------------------------------------------------------
  Sum of atomic charges =     0.000000

                    Cartesian Multipole Moments
 -----------------------------------------------------------------
    Charge (ESU x 10^10)
                 0.0000
    Dipole Moment (Debye)
         X       1.7158      Y      10.1595      Z      -2.9320
       Tot      10.7125
    Quadrupole Moments (Debye-Ang)
        XX     -26.3944     XY      -7.3920     YY       5.8490
        XZ       3.2958     YZ      -1.1530     ZZ     -24.7409

 Total job time:  211.12s(wall), 1147.50s(cpu)
        *  Thank you very much for using Q-Chem.  Have a nice day.  *
