 Q-Chem 4.3, Q-Chem, Inc., Pleasanton, CA (2015)
 Q-Chem 4.3.0 for Intel X86 Linux

User input:
--------------------------------------------------------------
$comment
XAS calculation for the 2b valence excited for water using cvs-adc(2)-x + 6-311+G* basis set
job 1 - determination of HF orbitals
$end

$molecule
0 1
6  -0.616502  2.41841  -0.059584
9  0.583496  2.344444  0.002581
9  -1.139555  3.28493  0.791548
9  -1.14776  1.168408  0.439411
9  -1.134322  2.552479  -1.199973
$end

$rem
jobtype      sp
sym_ignore true
exchange     hf
basis        6-31G*
unrestricted true
$end

--------------------------------------------------------------

    8    -435.6162582050      4.57E-06 Convergence criterion met
 Total energy in the final basis set = -435.6162582050
 Total job time:  2.32s(wall), 9.65s(cpu)
        *  Thank you very much for using Q-Chem.  Have a nice day.  *
 Q-Chem 4.3, Q-Chem, Inc., Pleasanton, CA (2015)
 Q-Chem 4.3.0 for Intel X86 Linux

User input:
--------------------------------------------------------------

$comment
job3 - cvs-adc(2) calculation
$end

$molecule
read
$end

$rem
mem_total 3000
mem_static 1500
sym_ignore true
scf_guess read
method cvs-adc(2)
basis 6-31G*
ee_singlets 20
cc_rest_occ 5                  !only excitations from the lowest N orbitals
unrestricted  true
max_scf_cycles 200
$end
--------------------------------------------------------------

             Standard Nuclear Orientation (Angstroms)
    I     Atom           X                Y                Z
 ----------------------------------------------------------------
    1      C      -0.6165020000     2.4184100000    -0.0595840000
    2      F       0.5834960000     2.3444440000     0.0025810000
    3      F      -1.1395550000     3.2849300000     0.7915480000
    4      F      -1.1477600000     1.1684080000     0.4394110000
    5      F      -1.1343220000     2.5524790000    -1.1999730000
 ----------------------------------------------------------------

    5    -435.6162582447      9.55E-09 Convergence criterion met
 Total energy in the final basis set = -435.6162582447
  Term symbol:  2 (-) A                                     R^2 =  1.49509e-13
  Excitation energy:                                             299.045341 eV
  Term symbol:  3 (-) A                                     R^2 =  9.33750e-14
  Excitation energy:                                             301.165348 eV
  Term symbol:  4 (-) A                                     R^2 =  1.43925e-13
  Excitation energy:                                             301.784190 eV
  Term symbol:  5 (-) A                                     R^2 =  1.98400e-13
  Excitation energy:                                             303.632636 eV
  Term symbol:  6 (-) A                                     R^2 =  1.19053e-13
  Excitation energy:                                             304.036813 eV
  Term symbol:  7 (-) A                                     R^2 =  1.42593e-13
  Excitation energy:                                             305.032111 eV
  Term symbol:  8 (-) A                                     R^2 =  7.64744e-14
  Excitation energy:                                             306.004577 eV
  Term symbol:  9 (-) A                                     R^2 =  9.00723e-14
  Excitation energy:                                             307.037328 eV
  Term symbol:  10 (-) A                                    R^2 =  2.28873e-13
  Excitation energy:                                             312.400273 eV
  Excited state 10 (A)                                             [converged]
  Term symbol:  11 (-) A                                    R^2 =  2.31375e-13
  Excitation energy:                                             313.383757 eV
  Excited state 11 (A)                                             [converged]
  Term symbol:  12 (-) A                                    R^2 =  2.96411e-13
  Excitation energy:                                             313.550869 eV
  Excited state 12 (A)                                             [converged]
  Term symbol:  13 (-) A                                    R^2 =  1.44915e-13
  Excitation energy:                                             313.911340 eV
  Excited state 13 (A)                                             [converged]
  Term symbol:  14 (-) A                                    R^2 =  1.72216e-13
  Excitation energy:                                             313.961074 eV
  Excited state 14 (A)                                             [converged]
  Term symbol:  15 (-) A                                    R^2 =  2.70349e-13
  Excitation energy:                                             314.379218 eV
  Excited state 15 (A)                                             [converged]
  Term symbol:  16 (-) A                                    R^2 =  7.18807e-13
  Excitation energy:                                             314.973787 eV
  Excited state 16 (A)                                             [converged]
  Term symbol:  17 (-) A                                    R^2 =  4.30495e-13
  Excitation energy:                                             315.361400 eV
  Excited state 17 (A)                                             [converged]
  Term symbol:  18 (-) A                                    R^2 =  6.05609e-08
  Excitation energy:                                             330.242565 eV
  Excited state 18 (A)                                             [converged]
  Term symbol:  19 (-) A                                    R^2 =  5.53665e-07
  Excitation energy:                                             330.280463 eV
  Excited state 19 (A)                                         [not converged]
  Term symbol:  20 (-) A                                    R^2 =  3.36831e-06
  Excitation energy:                                             330.400240 eV
  Excited state 20 (A)                                         [not converged]
  Term symbol:  21 (-) A                                    R^2 =  3.87065e-06
  Excitation energy:                                             330.483866 eV

                    Orbital Energies (a.u.)
 --------------------------------------------------------------

 Alpha MOs
 -- Occupied --
-26.423 -26.397 -26.367 -26.309 -11.610  -1.847  -1.740  -1.680
 -1.590  -1.018  -0.920  -0.906  -0.887  -0.772  -0.759  -0.738
 -0.711  -0.686  -0.653  -0.638  -0.631

 Beta MOs
 -- Occupied --
-26.423 -26.397 -26.367 -26.309 -11.610  -1.847  -1.740  -1.680
 -1.590  -1.018  -0.920  -0.906  -0.887  -0.772  -0.759  -0.738
 -0.711  -0.686  -0.653  -0.638  -0.631

          Ground-State Mulliken Net Atomic Charges

     Atom                 Charge (a.u.)    Spin (a.u.)
  --------------------------------------------------------
      1 C                     1.281555       0.000000
      2 F                    -0.207558       0.000000
      3 F                    -0.345315       0.000000
      4 F                    -0.451261       0.000000
      5 F                    -0.277421       0.000000
  --------------------------------------------------------
  Sum of atomic charges =     0.000000

                    Cartesian Multipole Moments
 -----------------------------------------------------------------
    Charge (ESU x 10^10)
                 0.0000
    Dipole Moment (Debye)
         X       1.0411      Y       0.9126      Z      -0.7524
       Tot       1.5757
    Quadrupole Moments (Debye-Ang)
        XX     -25.7327     XY       1.5535     YY     -21.4207
        XZ       0.7298     YZ      -1.5916     ZZ     -24.7699

 Total job time:  1919.71s(wall), 3160.20s(cpu)
        *  Thank you very much for using Q-Chem.  Have a nice day.  *
