 Q-Chem 4.3, Q-Chem, Inc., Pleasanton, CA (2015)
 Q-Chem 4.3.0 for Intel X86 Linux

User input:
--------------------------------------------------------------
$comment
XAS calculation for the 2b valence excited for water using cvs-adc(2)-x + 6-311+G* basis set
job 1 - determination of HF orbitals
$end

$molecule
0 1
6  -0.71184  2.370327  -0.008843
9  0.615893  2.350149  4.3e-05
9  -1.136373  3.291069  0.790223
9  -1.140532  1.191104  0.429421
9  -1.133848  2.557571  -1.209667
$end

$rem
jobtype      sp
sym_ignore true
exchange     hf
basis        6-31G*
unrestricted true
$end

--------------------------------------------------------------

    8    -435.6435711386      3.72E-06 Convergence criterion met
 Total energy in the final basis set = -435.6435711386
 Total job time:  2.27s(wall), 10.72s(cpu)
        *  Thank you very much for using Q-Chem.  Have a nice day.  *
 Q-Chem 4.3, Q-Chem, Inc., Pleasanton, CA (2015)
 Q-Chem 4.3.0 for Intel X86 Linux

User input:
--------------------------------------------------------------

$comment
job3 - cvs-adc(2) calculation
$end

$molecule
read
$end

$rem
mem_total 3000
mem_static 1500
sym_ignore true
scf_guess read
method cvs-adc(2)
basis 6-31G*
ee_singlets 20
cc_rest_occ 5                  !only excitations from the lowest N orbitals
unrestricted  true
max_scf_cycles 200
$end
--------------------------------------------------------------

             Standard Nuclear Orientation (Angstroms)
    I     Atom           X                Y                Z
 ----------------------------------------------------------------
    1      C      -0.7118400000     2.3703270000    -0.0088430000
    2      F       0.6158930000     2.3501490000     0.0000430000
    3      F      -1.1363730000     3.2910690000     0.7902230000
    4      F      -1.1405320000     1.1911040000     0.4294210000
    5      F      -1.1338480000     2.5575710000    -1.2096670000
 ----------------------------------------------------------------

    5    -435.6435711469      2.90E-09 Convergence criterion met
 Total energy in the final basis set = -435.6435711469
  Term symbol:  2 (-) A                                     R^2 =  6.45849e-14
  Excitation energy:                                             300.947673 eV
  Term symbol:  3 (-) A                                     R^2 =  1.07539e-13
  Excitation energy:                                             301.378086 eV
  Term symbol:  4 (-) A                                     R^2 =  7.80283e-14
  Excitation energy:                                             302.061154 eV
  Term symbol:  5 (-) A                                     R^2 =  3.25934e-14
  Excitation energy:                                             303.077880 eV
  Term symbol:  6 (-) A                                     R^2 =  5.63179e-14
  Excitation energy:                                             303.537986 eV
  Term symbol:  7 (-) A                                     R^2 =  7.48281e-14
  Excitation energy:                                             303.727769 eV
  Term symbol:  8 (-) A                                     R^2 =  4.30285e-14
  Excitation energy:                                             304.210143 eV
  Term symbol:  9 (-) A                                     R^2 =  5.84141e-14
  Excitation energy:                                             306.348813 eV
  Term symbol:  10 (-) A                                    R^2 =  1.99450e-13
  Excitation energy:                                             313.291038 eV
  Excited state 10 (A)                                             [converged]
  Term symbol:  11 (-) A                                    R^2 =  2.16384e-13
  Excitation energy:                                             313.633982 eV
  Excited state 11 (A)                                             [converged]
  Term symbol:  12 (-) A                                    R^2 =  4.22532e-14
  Excitation energy:                                             313.748153 eV
  Excited state 12 (A)                                             [converged]
  Term symbol:  13 (-) A                                    R^2 =  1.26300e-13
  Excitation energy:                                             313.883494 eV
  Excited state 13 (A)                                             [converged]
  Term symbol:  14 (-) A                                    R^2 =  8.18699e-14
  Excitation energy:                                             313.936979 eV
  Excited state 14 (A)                                             [converged]
  Term symbol:  15 (-) A                                    R^2 =  3.23862e-13
  Excitation energy:                                             314.028958 eV
  Excited state 15 (A)                                             [converged]
  Term symbol:  16 (-) A                                    R^2 =  6.71445e-14
  Excitation energy:                                             314.153307 eV
  Excited state 16 (A)                                             [converged]
  Term symbol:  17 (-) A                                    R^2 =  3.80171e-13
  Excitation energy:                                             314.382361 eV
  Excited state 17 (A)                                         [not converged]
  Term symbol:  18 (-) A                                    R^2 =  1.20194e-06
  Excitation energy:                                             330.157404 eV
  Excited state 18 (A)                                             [converged]
  Term symbol:  19 (-) A                                    R^2 =  6.53372e-07
  Excitation energy:                                             330.169209 eV
  Excited state 19 (A)                                             [converged]
  Term symbol:  20 (-) A                                    R^2 =  7.88183e-07
  Excitation energy:                                             330.181451 eV
  Excited state 20 (A)                                             [converged]
  Term symbol:  21 (-) A                                    R^2 =  8.74327e-08
  Excitation energy:                                             330.193388 eV

                    Orbital Energies (a.u.)
 --------------------------------------------------------------

 Alpha MOs
 -- Occupied --
-26.385 -26.383 -26.368 -26.366 -11.608  -1.810  -1.693  -1.674
 -1.662  -1.005  -0.892  -0.887  -0.884  -0.759  -0.757  -0.711
 -0.703  -0.697  -0.677  -0.672  -0.668

 Beta MOs
 -- Occupied --
-26.385 -26.383 -26.368 -26.366 -11.608  -1.810  -1.693  -1.674
 -1.662  -1.005  -0.892  -0.887  -0.884  -0.759  -0.757  -0.711
 -0.703  -0.697  -0.677  -0.672  -0.668

          Ground-State Mulliken Net Atomic Charges

     Atom                 Charge (a.u.)    Spin (a.u.)
  --------------------------------------------------------
      1 C                     1.324628       0.000000
      2 F                    -0.349903       0.000000
      3 F                    -0.313723       0.000000
      4 F                    -0.352081       0.000000
      5 F                    -0.308922       0.000000
  --------------------------------------------------------
  Sum of atomic charges =     0.000000

                    Cartesian Multipole Moments
 -----------------------------------------------------------------
    Charge (ESU x 10^10)
                 0.0000
    Dipole Moment (Debye)
         X      -0.1601      Y       0.2517      Z      -0.1234
       Tot       0.3229
    Quadrupole Moments (Debye-Ang)
        XX     -24.8615     XY      -0.6344     YY     -23.8238
        XZ       0.1295     YZ      -0.2224     ZZ     -24.8223

 Total job time:  2003.94s(wall), 3284.90s(cpu)
        *  Thank you very much for using Q-Chem.  Have a nice day.  *
