 Q-Chem 4.3, Q-Chem, Inc., Pleasanton, CA (2015)
 Q-Chem 4.3.0 for Intel X86 Linux

User input:
--------------------------------------------------------------
$comment
XAS calculation for the 2b valence excited for water using cvs-adc(2)-x + 6-311+G* basis set
job 1 - determination of HF orbitals
$end

$molecule
0 1
6  -0.461946  2.754379  -0.194904
9  0.709458  2.603982  -0.134293
9  -1.062719  3.240106  0.722599
9  -1.579571  0.570345  0.818067
9  -0.999687  2.717204  -1.28466
$end

$rem
jobtype      sp
sym_ignore true
exchange     hf
basis        6-31G*
unrestricted true
$end

--------------------------------------------------------------

    9    -435.3939856496      8.33E-06 Convergence criterion met
 Total energy in the final basis set = -435.3939856496
 Total job time:  2.45s(wall), 9.60s(cpu)
        *  Thank you very much for using Q-Chem.  Have a nice day.  *
 Q-Chem 4.3, Q-Chem, Inc., Pleasanton, CA (2015)
 Q-Chem 4.3.0 for Intel X86 Linux

User input:
--------------------------------------------------------------

$comment
job3 - cvs-adc(2) calculation
$end

$molecule
read
$end

$rem
mem_total 3000
mem_static 1500
sym_ignore true
scf_guess read
method cvs-adc(2)
basis 6-31G*
ee_singlets 20
cc_rest_occ 5                  !only excitations from the lowest N orbitals
unrestricted  true
max_scf_cycles 200
$end
--------------------------------------------------------------

             Standard Nuclear Orientation (Angstroms)
    I     Atom           X                Y                Z
 ----------------------------------------------------------------
    1      C      -0.4619460000     2.7543790000    -0.1949040000
    2      F       0.7094580000     2.6039820000    -0.1342930000
    3      F      -1.0627190000     3.2401060000     0.7225990000
    4      F      -1.5795710000     0.5703450000     0.8180670000
    5      F      -0.9996870000     2.7172040000    -1.2846600000
 ----------------------------------------------------------------

    7    -435.3939859964      6.44E-09 Convergence criterion met
 Total energy in the final basis set = -435.3939859964
  Term symbol:  2 (-) A                                     R^2 =  3.99549e-13
  Excitation energy:                                             294.968334 eV
  Term symbol:  3 (-) A                                     R^2 =  3.74344e-13
  Excitation energy:                                             296.956925 eV
  Term symbol:  4 (-) A                                     R^2 =  2.62641e-13
  Excitation energy:                                             303.891678 eV
  Term symbol:  5 (-) A                                     R^2 =  1.99986e-13
  Excitation energy:                                             305.379032 eV
  Term symbol:  6 (-) A                                     R^2 =  4.87334e-13
  Excitation energy:                                             305.878401 eV
  Term symbol:  7 (-) A                                     R^2 =  2.94498e-13
  Excitation energy:                                             306.661356 eV
  Term symbol:  8 (-) A                                     R^2 =  5.32875e-13
  Excitation energy:                                             308.073012 eV
  Term symbol:  9 (-) A                                     R^2 =  3.59059e-13
  Excitation energy:                                             308.858420 eV
  Term symbol:  10 (-) A                                    R^2 =  1.00626e-12
  Excitation energy:                                             312.733076 eV
  Excited state 10 (A)                                             [converged]
  Term symbol:  11 (-) A                                    R^2 =  5.28521e-13
  Excitation energy:                                             314.108604 eV
  Excited state 11 (A)                                             [converged]
  Term symbol:  12 (-) A                                    R^2 =  1.60664e-12
  Excitation energy:                                             314.589063 eV
  Excited state 12 (A)                                             [converged]
  Term symbol:  13 (-) A                                    R^2 =  1.90847e-12
  Excitation energy:                                             314.846097 eV
  Excited state 13 (A)                                             [converged]
  Term symbol:  14 (-) A                                    R^2 =  1.26938e-12
  Excitation energy:                                             315.049200 eV
  Excited state 14 (A)                                             [converged]
  Term symbol:  15 (-) A                                    R^2 =  1.25794e-12
  Excitation energy:                                             315.290116 eV
  Excited state 15 (A)                                             [converged]
  Term symbol:  16 (-) A                                    R^2 =  1.28960e-11
  Excitation energy:                                             316.873089 eV
  Excited state 16 (A)                                             [converged]
  Term symbol:  17 (-) A                                    R^2 =  6.34313e-12
  Excitation energy:                                             317.862480 eV
  Excited state 17 (A)                                         [not converged]
  Term symbol:  18 (-) A                                    R^2 =  2.82834e-02
  Excitation energy:                                             330.986809 eV
  Excited state 18 (A)                                         [not converged]
  Term symbol:  19 (-) A                                    R^2 =  6.93492e-02
  Excitation energy:                                             331.038602 eV
  Excited state 19 (A)                                         [not converged]
  Term symbol:  20 (-) A                                    R^2 =  2.59825e-02
  Excitation energy:                                             331.529924 eV
  Excited state 20 (A)                                         [not converged]
  Term symbol:  21 (-) A                                    R^2 =  7.28191e-02
  Excitation energy:                                             331.573498 eV

                    Orbital Energies (a.u.)
 --------------------------------------------------------------

 Alpha MOs
 -- Occupied --
-26.554 -26.531 -26.526 -26.006 -11.737  -1.986  -1.880  -1.858
 -1.251  -1.129  -1.053  -1.048  -0.995  -0.881  -0.874  -0.854
 -0.838  -0.818  -0.362  -0.362  -0.341

 Beta MOs
 -- Occupied --
-26.554 -26.531 -26.526 -26.006 -11.737  -1.986  -1.880  -1.858
 -1.251  -1.129  -1.053  -1.048  -0.995  -0.881  -0.874  -0.854
 -0.838  -0.818  -0.362  -0.362  -0.341

          Ground-State Mulliken Net Atomic Charges

     Atom                 Charge (a.u.)    Spin (a.u.)
  --------------------------------------------------------
      1 C                     1.085826       0.000000
      2 F                    -0.083300       0.000000
      3 F                    -0.086551       0.000000
      4 F                    -0.792663       0.000000
      5 F                    -0.123312       0.000000
  --------------------------------------------------------
  Sum of atomic charges =     0.000000

                    Cartesian Multipole Moments
 -----------------------------------------------------------------
    Charge (ESU x 10^10)
                 0.0000
    Dipole Moment (Debye)
         X       4.3154      Y       8.2326      Z      -3.7111
       Tot      10.0085
    Quadrupole Moments (Debye-Ang)
        XX     -31.2646     XY      -0.8873     YY       5.2272
        XZ       4.9653     YZ      -3.7252     ZZ     -25.1402

 Total job time:  2006.42s(wall), 3295.09s(cpu)
        *  Thank you very much for using Q-Chem.  Have a nice day.  *
