 Q-Chem 4.3, Q-Chem, Inc., Pleasanton, CA (2015)
 Q-Chem 4.3.0 for Intel X86 Linux

User input:
--------------------------------------------------------------
$comment
XAS calculation for the 2b valence excited for water using cvs-adc(2)-x + 6-311+G* basis set
job 1 - determination of HF orbitals
$end

$molecule
0 1
6  -0.427043  2.896066  -0.251586
9  0.676857  2.502951  -0.090088
9  -1.09847  3.190731  0.755205
9  -1.491651  0.711505  0.739928
9  -1.041933  2.637404  -1.247744
$end

$rem
jobtype      sp
sym_ignore true
exchange     hf
basis        6-31G*
unrestricted true
$end

--------------------------------------------------------------

   12    -435.3691848235      2.26E-06 Convergence criterion met
 Total energy in the final basis set = -435.3691848235
 Total job time:  3.22s(wall), 15.04s(cpu)
        *  Thank you very much for using Q-Chem.  Have a nice day.  *
 Q-Chem 4.3, Q-Chem, Inc., Pleasanton, CA (2015)
 Q-Chem 4.3.0 for Intel X86 Linux

User input:
--------------------------------------------------------------

$comment
job3 - cvs-adc(2) calculation
$end

$molecule
read
$end

$rem
mem_total 3000
mem_static 1500
sym_ignore true
scf_guess read
method cvs-adc(2)
basis 6-31G*
ee_singlets 20
cc_rest_occ 5                  !only excitations from the lowest N orbitals
unrestricted  true
max_scf_cycles 200
$end
--------------------------------------------------------------

             Standard Nuclear Orientation (Angstroms)
    I     Atom           X                Y                Z
 ----------------------------------------------------------------
    1      C      -0.4270430000     2.8960660000    -0.2515860000
    2      F       0.6768570000     2.5029510000    -0.0900880000
    3      F      -1.0984700000     3.1907310000     0.7552050000
    4      F      -1.4916510000     0.7115050000     0.7399280000
    5      F      -1.0419330000     2.6374040000    -1.2477440000
 ----------------------------------------------------------------

    6    -435.3691848864      8.76E-09 Convergence criterion met
 Total energy in the final basis set = -435.3691848864
  Term symbol:  2 (-) A                                     R^2 =  1.68015e-08
  Excitation energy:                                             294.143301 eV
  Term symbol:  3 (-) A                                     R^2 =  3.84825e-09
  Excitation energy:                                             296.003557 eV
  Term symbol:  4 (-) A                                     R^2 =  8.53181e-09
  Excitation energy:                                             304.024735 eV
  Term symbol:  5 (-) A                                     R^2 =  9.28619e-09
  Excitation energy:                                             305.198648 eV
  Term symbol:  6 (-) A                                     R^2 =  1.45556e-09
  Excitation energy:                                             305.808800 eV
  Term symbol:  7 (-) A                                     R^2 =  4.23417e-09
  Excitation energy:                                             306.610389 eV
  Term symbol:  8 (-) A                                     R^2 =  1.91551e-08
  Excitation energy:                                             307.232440 eV
  Term symbol:  9 (-) A                                     R^2 =  1.87965e-09
  Excitation energy:                                             308.736910 eV
  Term symbol:  10 (-) A                                    R^2 =  5.55130e-08
  Excitation energy:                                             312.459492 eV
  Excited state 10 (A)                                             [converged]
  Term symbol:  11 (-) A                                    R^2 =  1.21213e-08
  Excitation energy:                                             314.053640 eV
  Excited state 11 (A)                                             [converged]
  Term symbol:  12 (-) A                                    R^2 =  1.11286e-08
  Excitation energy:                                             314.306589 eV
  Excited state 12 (A)                                             [converged]
  Term symbol:  13 (-) A                                    R^2 =  3.24294e-09
  Excitation energy:                                             314.663490 eV
  Excited state 13 (A)                                             [converged]
  Term symbol:  14 (-) A                                    R^2 =  6.89717e-09
  Excitation energy:                                             314.739048 eV
  Excited state 14 (A)                                             [converged]
  Term symbol:  15 (-) A                                    R^2 =  2.39631e-09
  Excitation energy:                                             315.146098 eV
  Excited state 15 (A)                                             [converged]
  Term symbol:  16 (-) A                                    R^2 =  1.44952e-09
  Excitation energy:                                             317.912492 eV
  Excited state 16 (A)                                             [converged]
  Term symbol:  17 (-) A                                    R^2 =  2.28788e-09
  Excitation energy:                                             318.686502 eV
  Excited state 17 (A)                                         [not converged]
  Term symbol:  18 (-) A                                    R^2 =  1.91149e-01
  Excitation energy:                                             327.449521 eV
  Excited state 18 (A)                                             [converged]
  Term symbol:  19 (-) A                                    R^2 =  4.42416e-08
  Excitation energy:                                             331.731405 eV
  Excited state 19 (A)                                         [not converged]
  Term symbol:  20 (-) A                                    R^2 =  1.00869e-05
  Excitation energy:                                             331.908457 eV
  Excited state 20 (A)                                             [converged]
  Term symbol:  21 (-) A                                    R^2 =  8.73773e-07
  Excitation energy:                                             332.142517 eV

                    Orbital Energies (a.u.)
 --------------------------------------------------------------

 Alpha MOs
 -- Occupied --
-26.564 -26.550 -26.514 -25.953 -11.747  -1.985  -1.891  -1.835
 -1.212  -1.132  -1.056  -1.041  -0.994  -0.879  -0.871  -0.860
 -0.822  -0.813  -0.321  -0.320  -0.317

 Beta MOs
 -- Occupied --
-26.564 -26.550 -26.514 -25.953 -11.747  -1.985  -1.891  -1.835
 -1.212  -1.132  -1.056  -1.041  -0.994  -0.879  -0.871  -0.860
 -0.822  -0.813  -0.321  -0.320  -0.317

          Ground-State Mulliken Net Atomic Charges

     Atom                 Charge (a.u.)    Spin (a.u.)
  --------------------------------------------------------
      1 C                     1.128568       0.000000
      2 F                    -0.060729       0.000000
      3 F                    -0.110631       0.000000
      4 F                    -0.881508       0.000000
      5 F                    -0.075700       0.000000
  --------------------------------------------------------
  Sum of atomic charges =     0.000000

                    Cartesian Multipole Moments
 -----------------------------------------------------------------
    Charge (ESU x 10^10)
                 0.0000
    Dipole Moment (Debye)
         X       4.6242      Y       9.2120      Z      -4.2982
       Tot      11.1678
    Quadrupole Moments (Debye-Ang)
        XX     -31.0653     XY      -0.0174     YY      11.3543
        XZ       5.0550     YZ      -5.9955     ZZ     -24.4828

 Total job time:  2119.20s(wall), 3392.22s(cpu)
        *  Thank you very much for using Q-Chem.  Have a nice day.  *
