 Q-Chem 4.3, Q-Chem, Inc., Pleasanton, CA (2015)
 Q-Chem 4.3.0 for Intel X86 Linux

User input:
--------------------------------------------------------------
$comment
XAS calculation for the 2b valence excited for water using cvs-adc(2)-x + 6-311+G* basis set
job 1 - determination of HF orbitals
$end

$molecule
0 1
6  -0.49864  2.891254  -0.218701
9  0.575958  2.317645  0.005246
9  -1.142175  3.248937  0.784976
9  -1.220255  0.956393  0.529966
9  -1.135516  2.531132  -1.187906
$end

$rem
jobtype      sp
sym_ignore true
exchange     hf
basis        6-31G*
unrestricted true
$end

--------------------------------------------------------------

   12    -435.3801370608      1.96E-06 Convergence criterion met
 Total energy in the final basis set = -435.3801370608
 Total job time:  3.21s(wall), 13.09s(cpu)
        *  Thank you very much for using Q-Chem.  Have a nice day.  *
 Q-Chem 4.3, Q-Chem, Inc., Pleasanton, CA (2015)
 Q-Chem 4.3.0 for Intel X86 Linux

User input:
--------------------------------------------------------------

$comment
job3 - cvs-adc(2) calculation
$end

$molecule
read
$end

$rem
mem_total 3000
mem_static 1500
sym_ignore true
scf_guess read
method cvs-adc(2)
basis 6-31G*
ee_singlets 20
cc_rest_occ 5                  !only excitations from the lowest N orbitals
unrestricted  true
max_scf_cycles 200
$end
--------------------------------------------------------------

             Standard Nuclear Orientation (Angstroms)
    I     Atom           X                Y                Z
 ----------------------------------------------------------------
    1      C      -0.4986400000     2.8912540000    -0.2187010000
    2      F       0.5759580000     2.3176450000     0.0052460000
    3      F      -1.1421750000     3.2489370000     0.7849760000
    4      F      -1.2202550000     0.9563930000     0.5299660000
    5      F      -1.1355160000     2.5311320000    -1.1879060000
 ----------------------------------------------------------------

    7    -435.3801368498      6.71E-09 Convergence criterion met
 Total energy in the final basis set = -435.3801368498
  Term symbol:  2 (-) A                                     R^2 =  4.18925e-14
  Excitation energy:                                             293.384015 eV
  Term symbol:  3 (-) A                                     R^2 =  4.70772e-14
  Excitation energy:                                             295.204687 eV
  Term symbol:  4 (-) A                                     R^2 =  3.74253e-14
  Excitation energy:                                             304.355577 eV
  Term symbol:  5 (-) A                                     R^2 =  6.33211e-14
  Excitation energy:                                             304.510839 eV
  Term symbol:  6 (-) A                                     R^2 =  4.60078e-14
  Excitation energy:                                             305.213590 eV
  Term symbol:  7 (-) A                                     R^2 =  4.27360e-14
  Excitation energy:                                             306.442715 eV
  Term symbol:  8 (-) A                                     R^2 =  6.96891e-14
  Excitation energy:                                             306.573811 eV
  Term symbol:  9 (-) A                                     R^2 =  7.71761e-14
  Excitation energy:                                             307.216903 eV
  Term symbol:  10 (-) A                                    R^2 =  7.59537e-14
  Excitation energy:                                             312.003630 eV
  Excited state 10 (A)                                             [converged]
  Term symbol:  11 (-) A                                    R^2 =  1.03044e-13
  Excitation energy:                                             313.596216 eV
  Excited state 11 (A)                                             [converged]
  Term symbol:  12 (-) A                                    R^2 =  3.44270e-13
  Excitation energy:                                             314.123415 eV
  Excited state 12 (A)                                             [converged]
  Term symbol:  13 (-) A                                    R^2 =  2.72812e-13
  Excitation energy:                                             314.209010 eV
  Excited state 13 (A)                                             [converged]
  Term symbol:  14 (-) A                                    R^2 =  8.37740e-13
  Excitation energy:                                             314.594943 eV
  Excited state 14 (A)                                             [converged]
  Term symbol:  15 (-) A                                    R^2 =  3.10661e-13
  Excitation energy:                                             314.726289 eV
  Excited state 15 (A)                                             [converged]
  Term symbol:  16 (-) A                                    R^2 =  1.00512e-11
  Excitation energy:                                             320.343860 eV
  Excited state 16 (A)                                             [converged]
  Term symbol:  17 (-) A                                    R^2 =  3.58061e-12
  Excitation energy:                                             320.844899 eV
  Excited state 17 (A)                                         [not converged]
  Term symbol:  18 (-) A                                    R^2 =  9.40733e-05
  Excitation energy:                                             331.885231 eV
  Excited state 18 (A)                                         [not converged]
  Term symbol:  19 (-) A                                    R^2 =  4.53875e-05
  Excitation energy:                                             332.013654 eV
  Excited state 19 (A)                                         [not converged]
  Term symbol:  20 (-) A                                    R^2 =  3.00492e-04
  Excitation energy:                                             332.148940 eV
  Excited state 20 (A)                                         [not converged]
  Term symbol:  21 (-) A                                    R^2 =  1.92740e-04
  Excitation energy:                                             332.282497 eV

                    Orbital Energies (a.u.)
 --------------------------------------------------------------

 Alpha MOs
 -- Occupied --
-26.513 -26.500 -26.497 -25.987 -11.721  -1.924  -1.824  -1.807
 -1.259  -1.091  -1.002  -0.998  -0.938  -0.834  -0.833  -0.808
 -0.799  -0.783  -0.360  -0.359  -0.359

 Beta MOs
 -- Occupied --
-26.513 -26.500 -26.497 -25.987 -11.721  -1.924  -1.824  -1.807
 -1.259  -1.091  -1.002  -0.998  -0.938  -0.834  -0.833  -0.808
 -0.799  -0.783  -0.360  -0.359  -0.359

          Ground-State Mulliken Net Atomic Charges

     Atom                 Charge (a.u.)    Spin (a.u.)
  --------------------------------------------------------
      1 C                     1.217959       0.000000
      2 F                    -0.127474       0.000000
      3 F                    -0.133869       0.000000
      4 F                    -0.856306       0.000000
      5 F                    -0.100310       0.000000
  --------------------------------------------------------
  Sum of atomic charges =     0.000000

                    Cartesian Multipole Moments
 -----------------------------------------------------------------
    Charge (ESU x 10^10)
                 0.0000
    Dipole Moment (Debye)
         X       2.9056      Y       7.8642      Z      -3.1593
       Tot       8.9593
    Quadrupole Moments (Debye-Ang)
        XX     -27.8231     XY      -0.8019     YY       8.2980
        XZ       3.0521     YZ      -5.3531     ZZ     -23.6394

 Total job time:  1855.33s(wall), 3020.63s(cpu)
        *  Thank you very much for using Q-Chem.  Have a nice day.  *
