 Q-Chem 4.3, Q-Chem, Inc., Pleasanton, CA (2015)
 Q-Chem 4.3.0 for Intel X86 Linux

User input:
--------------------------------------------------------------
$comment
XAS calculation for the 2b valence excited for water using cvs-adc(2)-x + 6-311+G* basis set
job 1 - determination of HF orbitals
$end

$molecule
0 1
6  -0.680261  2.355007  -0.001474
9  0.618001  2.3556  -0.003664
9  -1.141473  3.287504  0.793582
9  -1.150476  1.192558  0.435155
9  -1.13998  2.559342  -1.22438
$end

$rem
jobtype      sp
sym_ignore true
exchange     hf
basis        6-31G*
unrestricted true
$end

--------------------------------------------------------------

    7    -435.6435874628      9.47E-06 Convergence criterion met
 Total energy in the final basis set = -435.6435874628
 Total job time:  2.00s(wall), 9.68s(cpu)
        *  Thank you very much for using Q-Chem.  Have a nice day.  *
 Q-Chem 4.3, Q-Chem, Inc., Pleasanton, CA (2015)
 Q-Chem 4.3.0 for Intel X86 Linux

User input:
--------------------------------------------------------------

$comment
job3 - cvs-adc(2) calculation
$end

$molecule
read
$end

$rem
mem_total 3000
mem_static 1500
sym_ignore true
scf_guess read
method cvs-adc(2)
basis 6-31G*
ee_singlets 20
cc_rest_occ 5                  !only excitations from the lowest N orbitals
unrestricted  true
max_scf_cycles 200
$end
--------------------------------------------------------------

             Standard Nuclear Orientation (Angstroms)
    I     Atom           X                Y                Z
 ----------------------------------------------------------------
    1      C      -0.6802610000     2.3550070000    -0.0014740000
    2      F       0.6180010000     2.3556000000    -0.0036640000
    3      F      -1.1414730000     3.2875040000     0.7935820000
    4      F      -1.1504760000     1.1925580000     0.4351550000
    5      F      -1.1399800000     2.5593420000    -1.2243800000
 ----------------------------------------------------------------

    6    -435.6435875538      3.66E-09 Convergence criterion met
 Total energy in the final basis set = -435.6435875538
  Term symbol:  2 (-) A                                     R^2 =  4.23776e-11
  Excitation energy:                                             301.004767 eV
  Term symbol:  3 (-) A                                     R^2 =  7.89439e-12
  Excitation energy:                                             301.265439 eV
  Term symbol:  4 (-) A                                     R^2 =  2.47060e-11
  Excitation energy:                                             301.756573 eV
  Term symbol:  5 (-) A                                     R^2 =  1.37509e-11
  Excitation energy:                                             303.123084 eV
  Term symbol:  6 (-) A                                     R^2 =  1.11766e-11
  Excitation energy:                                             303.394892 eV
  Term symbol:  7 (-) A                                     R^2 =  3.78634e-11
  Excitation energy:                                             303.446387 eV
  Term symbol:  8 (-) A                                     R^2 =  2.57927e-10
  Excitation energy:                                             303.904639 eV
  Term symbol:  9 (-) A                                     R^2 =  5.05493e-10
  Excitation energy:                                             306.108560 eV
  Term symbol:  10 (-) A                                    R^2 =  8.53126e-10
  Excitation energy:                                             313.474864 eV
  Excited state 10 (A)                                             [converged]
  Term symbol:  11 (-) A                                    R^2 =  9.25794e-10
  Excitation energy:                                             313.689775 eV
  Excited state 11 (A)                                             [converged]
  Term symbol:  12 (-) A                                    R^2 =  6.68928e-10
  Excitation energy:                                             313.719525 eV
  Excited state 12 (A)                                             [converged]
  Term symbol:  13 (-) A                                    R^2 =  2.67986e-10
  Excitation energy:                                             313.959983 eV
  Excited state 13 (A)                                             [converged]
  Term symbol:  14 (-) A                                    R^2 =  4.58960e-10
  Excitation energy:                                             314.067706 eV
  Excited state 14 (A)                                             [converged]
  Term symbol:  15 (-) A                                    R^2 =  3.58016e-10
  Excitation energy:                                             314.122407 eV
  Excited state 15 (A)                                             [converged]
  Term symbol:  16 (-) A                                    R^2 =  2.56071e-10
  Excitation energy:                                             314.139814 eV
  Excited state 16 (A)                                             [converged]
  Term symbol:  17 (-) A                                    R^2 =  5.64834e-10
  Excitation energy:                                             314.443582 eV
  Excited state 17 (A)                                         [not converged]
  Term symbol:  18 (-) A                                    R^2 =  1.60078e-06
  Excitation energy:                                             330.113866 eV
  Excited state 18 (A)                                         [not converged]
  Term symbol:  19 (-) A                                    R^2 =  2.60964e-06
  Excitation energy:                                             330.138364 eV
  Excited state 19 (A)                                         [not converged]
  Term symbol:  20 (-) A                                    R^2 =  2.46510e-06
  Excitation energy:                                             330.176890 eV
  Excited state 20 (A)                                         [not converged]
  Term symbol:  21 (-) A                                    R^2 =  3.99999e-06
  Excitation energy:                                             330.202223 eV

                    Orbital Energies (a.u.)
 --------------------------------------------------------------

 Alpha MOs
 -- Occupied --
-26.386 -26.376 -26.373 -26.369 -11.610  -1.804  -1.686  -1.673
 -1.666  -1.004  -0.888  -0.884  -0.882  -0.758  -0.756  -0.708
 -0.702  -0.699  -0.676  -0.674  -0.670

 Beta MOs
 -- Occupied --
-26.386 -26.376 -26.373 -26.369 -11.610  -1.804  -1.686  -1.673
 -1.666  -1.004  -0.888  -0.884  -0.882  -0.758  -0.756  -0.708
 -0.702  -0.699  -0.676  -0.674  -0.670

          Ground-State Mulliken Net Atomic Charges

     Atom                 Charge (a.u.)    Spin (a.u.)
  --------------------------------------------------------
      1 C                     1.337120       0.000000
      2 F                    -0.316672       0.000000
      3 F                    -0.330950       0.000000
      4 F                    -0.347677       0.000000
      5 F                    -0.341820       0.000000
  --------------------------------------------------------
  Sum of atomic charges =     0.000000

                    Cartesian Multipole Moments
 -----------------------------------------------------------------
    Charge (ESU x 10^10)
                 0.0000
    Dipole Moment (Debye)
         X       0.2201      Y       0.0815      Z       0.0040
       Tot       0.2348
    Quadrupole Moments (Debye-Ang)
        XX     -25.2131     XY       0.4172     YY     -24.6584
        XZ       0.0027     YZ       0.0560     ZZ     -25.0628

 Total job time:  2735.14s(wall), 4432.36s(cpu)
        *  Thank you very much for using Q-Chem.  Have a nice day.  *
