 Q-Chem 4.3, Q-Chem, Inc., Pleasanton, CA (2015)
 Q-Chem 4.3.0 for Intel X86 Linux

User input:
--------------------------------------------------------------
$comment
XAS calculation for the 2b valence excited for water using cvs-adc(2)-x + 6-311+G* basis set
job 1 - determination of HF orbitals
$end

$molecule
0 1
6  -0.392534  3.262756  -0.342931
9  0.623513  2.609002  -0.100314
9  -1.039498  3.573013  0.648607
9  -1.572002  -0.238205  0.970142
9  -1.026484  2.887329  -1.294475
$end

$rem
jobtype      sp
sym_ignore true
exchange     hf
basis        6-31G*
unrestricted true
$end

--------------------------------------------------------------

   13    -435.2561582489      3.38E-06 Convergence criterion met
 Total energy in the final basis set = -435.2561582489
 Total job time:  3.42s(wall), 15.97s(cpu)
        *  Thank you very much for using Q-Chem.  Have a nice day.  *
 Q-Chem 4.3, Q-Chem, Inc., Pleasanton, CA (2015)
 Q-Chem 4.3.0 for Intel X86 Linux

User input:
--------------------------------------------------------------

$comment
job3 - cvs-adc(2) calculation
$end

$molecule
read
$end

$rem
mem_total 3000
mem_static 1500
sym_ignore true
scf_guess read
method cvs-adc(2)
basis 6-31G*
ee_singlets 20
cc_rest_occ 5                  !only excitations from the lowest N orbitals
unrestricted  true
max_scf_cycles 200
$end
--------------------------------------------------------------

             Standard Nuclear Orientation (Angstroms)
    I     Atom           X                Y                Z
 ----------------------------------------------------------------
    1      C      -0.3925340000     3.2627560000    -0.3429310000
    2      F       0.6235130000     2.6090020000    -0.1003140000
    3      F      -1.0394980000     3.5730130000     0.6486070000
    4      F      -1.5720020000    -0.2382050000     0.9701420000
    5      F      -1.0264840000     2.8873290000    -1.2944750000
 ----------------------------------------------------------------

    9    -435.2561582453      2.28E-09 Convergence criterion met
 Total energy in the final basis set = -435.2561582453
  Term symbol:  2 (-) A                                     R^2 =  3.23155e-13
  Excitation energy:                                             293.067232 eV
  Term symbol:  3 (-) A                                     R^2 =  3.53563e-13
  Excitation energy:                                             294.920912 eV
  Term symbol:  4 (-) A                                     R^2 =  1.62583e-12
  Excitation energy:                                             304.621808 eV
  Term symbol:  5 (-) A                                     R^2 =  2.07666e-12
  Excitation energy:                                             304.932630 eV
  Term symbol:  6 (-) A                                     R^2 =  1.69619e-12
  Excitation energy:                                             305.444388 eV
  Term symbol:  7 (-) A                                     R^2 =  3.56869e-12
  Excitation energy:                                             306.656748 eV
  Term symbol:  8 (-) A                                     R^2 =  3.26973e-12
  Excitation energy:                                             306.821692 eV
  Term symbol:  9 (-) A                                     R^2 =  2.60800e-12
  Excitation energy:                                             307.365634 eV
  Term symbol:  10 (-) A                                    R^2 =  6.12454e-12
  Excitation energy:                                             312.801610 eV
  Excited state 10 (A)                                             [converged]
  Term symbol:  11 (-) A                                    R^2 =  3.37415e-12
  Excitation energy:                                             314.177210 eV
  Excited state 11 (A)                                             [converged]
  Term symbol:  12 (-) A                                    R^2 =  2.66493e-12
  Excitation energy:                                             314.224035 eV
  Excited state 12 (A)                                             [converged]
  Term symbol:  13 (-) A                                    R^2 =  2.64270e-12
  Excitation energy:                                             314.322064 eV
  Excited state 13 (A)                                             [converged]
  Term symbol:  14 (-) A                                    R^2 =  3.19657e-13
  Excitation energy:                                             314.717169 eV
  Excited state 14 (A)                                             [converged]
  Term symbol:  15 (-) A                                    R^2 =  2.36966e-12
  Excitation energy:                                             314.858585 eV
  Excited state 15 (A)                                             [converged]
  Term symbol:  16 (-) A                                    R^2 =  1.17810e-12
  Excitation energy:                                             315.307821 eV
  Excited state 16 (A)                                             [converged]
  Term symbol:  17 (-) A                                    R^2 =  1.48862e-12
  Excitation energy:                                             316.228186 eV
  Excited state 17 (A)                                         [not converged]
  Term symbol:  18 (-) A                                    R^2 =  1.78887e-03
  Excitation energy:                                             319.543690 eV
  Excited state 18 (A)                                             [converged]
  Term symbol:  19 (-) A                                    R^2 =  1.57134e-10
  Excitation energy:                                             319.568581 eV
  Excited state 19 (A)                                             [converged]
  Term symbol:  20 (-) A                                    R^2 =  4.57450e-07
  Excitation energy:                                             319.568646 eV
  Excited state 20 (A)                                         [not converged]
  Term symbol:  21 (-) A                                    R^2 =  2.16861e-01
  Excitation energy:                                             319.940379 eV

                    Orbital Energies (a.u.)
 --------------------------------------------------------------

 Alpha MOs
 -- Occupied --
-26.618 -26.608 -26.602 -25.835 -11.820  -2.043  -1.932  -1.914
 -1.193  -1.107  -1.105  -1.103  -1.054  -0.938  -0.935  -0.906
 -0.896  -0.881  -0.216  -0.216  -0.216

 Beta MOs
 -- Occupied --
-26.618 -26.608 -26.602 -25.835 -11.820  -2.043  -1.932  -1.914
 -1.193  -1.107  -1.105  -1.103  -1.054  -0.938  -0.935  -0.906
 -0.896  -0.881  -0.216  -0.216  -0.216

          Ground-State Mulliken Net Atomic Charges

     Atom                 Charge (a.u.)    Spin (a.u.)
  --------------------------------------------------------
      1 C                     1.209248       0.000000
      2 F                    -0.083469       0.000000
      3 F                    -0.077762       0.000000
      4 F                    -0.994174       0.000000
      5 F                    -0.053842       0.000000
  --------------------------------------------------------
  Sum of atomic charges =     0.000000

                    Cartesian Multipole Moments
 -----------------------------------------------------------------
    Charge (ESU x 10^10)
                 0.0000
    Dipole Moment (Debye)
         X       5.5736      Y      16.6753      Z      -6.3245
       Tot      18.6851
    Quadrupole Moments (Debye-Ang)
        XX     -33.1904     XY      -7.5992     YY      29.2128
        XZ       7.8312     YZ      -4.8479     ZZ     -25.9928

 Total job time:  1997.59s(wall), 3420.23s(cpu)
        *  Thank you very much for using Q-Chem.  Have a nice day.  *
