 Q-Chem 4.3, Q-Chem, Inc., Pleasanton, CA (2015)
 Q-Chem 4.3.0 for Intel X86 Linux

User input:
--------------------------------------------------------------
$comment
XAS calculation for the 2b valence excited for water using cvs-adc(2)-x + 6-311+G* basis set
job 1 - determination of HF orbitals
$end

$molecule
0 1
6  -0.506236  2.653836  -0.19386
9  0.797055  2.72278  -0.18734
9  -1.033344  3.312658  0.7137
9  -1.717261  0.345783  0.940435
9  -0.949718  2.812462  -1.345946
$end

$rem
jobtype      sp
sym_ignore true
exchange     hf
basis        6-31G*
unrestricted true
$end

--------------------------------------------------------------

   14    -435.3530124202      4.84E-06 Convergence criterion met
 Total energy in the final basis set = -435.3530124202
 Total job time:  3.52s(wall), 14.79s(cpu)
        *  Thank you very much for using Q-Chem.  Have a nice day.  *
 Q-Chem 4.3, Q-Chem, Inc., Pleasanton, CA (2015)
 Q-Chem 4.3.0 for Intel X86 Linux

User input:
--------------------------------------------------------------

$comment
job3 - cvs-adc(2) calculation
$end

$molecule
read
$end

$rem
mem_total 3000
mem_static 1500
sym_ignore true
scf_guess read
method cvs-adc(2)
basis 6-31G*
ee_singlets 20
cc_rest_occ 5                  !only excitations from the lowest N orbitals
unrestricted  true
max_scf_cycles 200
$end
--------------------------------------------------------------

             Standard Nuclear Orientation (Angstroms)
    I     Atom           X                Y                Z
 ----------------------------------------------------------------
    1      C      -0.5062360000     2.6538360000    -0.1938600000
    2      F       0.7970550000     2.7227800000    -0.1873400000
    3      F      -1.0333440000     3.3126580000     0.7137000000
    4      F      -1.7172610000     0.3457830000     0.9404350000
    5      F      -0.9497180000     2.8124620000    -1.3459460000
 ----------------------------------------------------------------

    8    -435.3530125711      8.14E-09 Convergence criterion met
 Total energy in the final basis set = -435.3530125711
  Term symbol:  2 (-) A                                     R^2 =  8.93549e-14
  Excitation energy:                                             294.043987 eV
  Term symbol:  3 (-) A                                     R^2 =  1.69396e-13
  Excitation energy:                                             295.875122 eV
  Term symbol:  4 (-) A                                     R^2 =  1.33325e-13
  Excitation energy:                                             302.175419 eV
  Term symbol:  5 (-) A                                     R^2 =  5.36326e-13
  Excitation energy:                                             303.793669 eV
  Term symbol:  6 (-) A                                     R^2 =  1.06978e-13
  Excitation energy:                                             304.139279 eV
  Term symbol:  7 (-) A                                     R^2 =  3.38471e-13
  Excitation energy:                                             304.261958 eV
  Term symbol:  8 (-) A                                     R^2 =  2.25726e-13
  Excitation energy:                                             305.725311 eV
  Term symbol:  9 (-) A                                     R^2 =  1.12350e-13
  Excitation energy:                                             306.137710 eV
  Term symbol:  10 (-) A                                    R^2 =  3.41015e-13
  Excitation energy:                                             313.254474 eV
  Excited state 10 (A)                                             [converged]
  Term symbol:  11 (-) A                                    R^2 =  5.42602e-13
  Excitation energy:                                             313.616504 eV
  Excited state 11 (A)                                             [converged]
  Term symbol:  12 (-) A                                    R^2 =  7.75240e-13
  Excitation energy:                                             313.846361 eV
  Excited state 12 (A)                                             [converged]
  Term symbol:  13 (-) A                                    R^2 =  6.17726e-13
  Excitation energy:                                             313.958156 eV
  Excited state 13 (A)                                             [converged]
  Term symbol:  14 (-) A                                    R^2 =  1.24485e-12
  Excitation energy:                                             314.344768 eV
  Excited state 14 (A)                                             [converged]
  Term symbol:  15 (-) A                                    R^2 =  1.33462e-12
  Excitation energy:                                             314.411865 eV
  Excited state 15 (A)                                             [converged]
  Term symbol:  16 (-) A                                    R^2 =  1.03548e-12
  Excitation energy:                                             314.546989 eV
  Excited state 16 (A)                                             [converged]
  Term symbol:  17 (-) A                                    R^2 =  4.55727e-13
  Excitation energy:                                             315.584247 eV
  Excited state 17 (A)                                             [converged]
  Term symbol:  18 (-) A                                    R^2 =  1.21595e-12
  Excitation energy:                                             325.804614 eV
  Excited state 18 (A)                                             [converged]
  Term symbol:  19 (-) A                                    R^2 =  1.34761e-12
  Excitation energy:                                             325.881681 eV
  Excited state 19 (A)                                         [not converged]
  Term symbol:  20 (-) A                                    R^2 =  8.20219e-05
  Excitation energy:                                             331.274949 eV
  Excited state 20 (A)                                         [not converged]
  Term symbol:  21 (-) A                                    R^2 =  5.43004e-05
  Excitation energy:                                             331.402800 eV

                    Orbital Energies (a.u.)
 --------------------------------------------------------------

 Alpha MOs
 -- Occupied --
-26.519 -26.512 -26.496 -26.100 -11.727  -1.920  -1.826  -1.790
 -1.320  -1.100  -1.000  -0.991  -0.941  -0.850  -0.835  -0.817
 -0.802  -0.789  -0.438  -0.438  -0.367

 Beta MOs
 -- Occupied --
-26.519 -26.512 -26.496 -26.100 -11.727  -1.920  -1.826  -1.790
 -1.320  -1.100  -1.000  -0.991  -0.941  -0.850  -0.835  -0.817
 -0.802  -0.789  -0.438  -0.438  -0.367

          Ground-State Mulliken Net Atomic Charges

     Atom                 Charge (a.u.)    Spin (a.u.)
  --------------------------------------------------------
      1 C                     1.134511       0.000000
      2 F                    -0.224089       0.000000
      3 F                    -0.136907       0.000000
      4 F                    -0.618381       0.000000
      5 F                    -0.155134       0.000000
  --------------------------------------------------------
  Sum of atomic charges =     0.000000

                    Cartesian Multipole Moments
 -----------------------------------------------------------------
    Charge (ESU x 10^10)
                 0.0000
    Dipole Moment (Debye)
         X       3.2131      Y       6.6133      Z      -3.2748
       Tot       8.0489
    Quadrupole Moments (Debye-Ang)
        XX     -31.1516     XY      -2.7644     YY      -2.9894
        XZ       4.8989     YZ      -2.5727     ZZ     -25.6921

 Total job time:  2010.11s(wall), 3286.99s(cpu)
        *  Thank you very much for using Q-Chem.  Have a nice day.  *
