 Q-Chem 4.3, Q-Chem, Inc., Pleasanton, CA (2015)
 Q-Chem 4.3.0 for Intel X86 Linux

User input:
--------------------------------------------------------------
$comment
XAS calculation for the 2b valence excited for water using cvs-adc(2)-x + 6-311+G* basis set
job 1 - determination of HF orbitals
$end

$molecule
0 1
6  -0.349671  2.9388  -0.273115
9  0.708817  2.570754  -0.115936
9  -1.126171  3.109419  0.788457
9  -1.562651  0.778234  0.770295
9  -1.050686  2.61359  -1.268472
$end

$rem
jobtype      sp
sym_ignore true
exchange     hf
basis        6-31G*
unrestricted true
$end

--------------------------------------------------------------

   11    -435.3204615672      7.74E-06 Convergence criterion met
 Total energy in the final basis set = -435.3204615672
 Total job time:  3.08s(wall), 12.91s(cpu)
        *  Thank you very much for using Q-Chem.  Have a nice day.  *
 Q-Chem 4.3, Q-Chem, Inc., Pleasanton, CA (2015)
 Q-Chem 4.3.0 for Intel X86 Linux

User input:
--------------------------------------------------------------

$comment
job3 - cvs-adc(2) calculation
$end

$molecule
read
$end

$rem
mem_total 3000
mem_static 1500
sym_ignore true
scf_guess read
method cvs-adc(2)
basis 6-31G*
ee_singlets 20
cc_rest_occ 5                  !only excitations from the lowest N orbitals
unrestricted  true
max_scf_cycles 200
$end
--------------------------------------------------------------

             Standard Nuclear Orientation (Angstroms)
    I     Atom           X                Y                Z
 ----------------------------------------------------------------
    1      C      -0.3496710000     2.9388000000    -0.2731150000
    2      F       0.7088170000     2.5707540000    -0.1159360000
    3      F      -1.1261710000     3.1094190000     0.7884570000
    4      F      -1.5626510000     0.7782340000     0.7702950000
    5      F      -1.0506860000     2.6135900000    -1.2684720000
 ----------------------------------------------------------------

    9    -435.3204622927      6.79E-09 Convergence criterion met
 Total energy in the final basis set = -435.3204622927
  Term symbol:  2 (-) A                                     R^2 =  6.81392e-13
  Excitation energy:                                             293.625900 eV
  Term symbol:  3 (-) A                                     R^2 =  1.08095e-12
  Excitation energy:                                             295.433112 eV
  Term symbol:  4 (-) A                                     R^2 =  8.51640e-13
  Excitation energy:                                             302.420869 eV
  Term symbol:  5 (-) A                                     R^2 =  2.45380e-12
  Excitation energy:                                             303.516794 eV
  Term symbol:  6 (-) A                                     R^2 =  8.71811e-13
  Excitation energy:                                             304.524104 eV
  Term symbol:  7 (-) A                                     R^2 =  1.14414e-12
  Excitation energy:                                             305.486084 eV
  Term symbol:  8 (-) A                                     R^2 =  5.67118e-13
  Excitation energy:                                             307.372369 eV
  Term symbol:  9 (-) A                                     R^2 =  5.72261e-12
  Excitation energy:                                             308.952466 eV
  Term symbol:  10 (-) A                                    R^2 =  8.09079e-12
  Excitation energy:                                             312.603126 eV
  Excited state 10 (A)                                             [converged]
  Term symbol:  11 (-) A                                    R^2 =  1.54538e-12
  Excitation energy:                                             313.839695 eV
  Excited state 11 (A)                                             [converged]
  Term symbol:  12 (-) A                                    R^2 =  6.24739e-12
  Excitation energy:                                             314.017274 eV
  Excited state 12 (A)                                             [converged]
  Term symbol:  13 (-) A                                    R^2 =  2.54250e-12
  Excitation energy:                                             314.280543 eV
  Excited state 13 (A)                                             [converged]
  Term symbol:  14 (-) A                                    R^2 =  1.76023e-12
  Excitation energy:                                             314.530971 eV
  Excited state 14 (A)                                             [converged]
  Term symbol:  15 (-) A                                    R^2 =  5.08166e-12
  Excitation energy:                                             315.441203 eV
  Excited state 15 (A)                                             [converged]
  Term symbol:  16 (-) A                                    R^2 =  4.22208e-11
  Excitation energy:                                             317.646615 eV
  Excited state 16 (A)                                             [converged]
  Term symbol:  17 (-) A                                    R^2 =  8.42687e-11
  Excitation energy:                                             318.341009 eV
  Excited state 17 (A)                                         [not converged]
  Term symbol:  18 (-) A                                    R^2 =  2.53401e-01
  Excitation energy:                                             325.343442 eV
  Excited state 18 (A)                                             [converged]
  Term symbol:  19 (-) A                                    R^2 =  8.76956e-08
  Excitation energy:                                             330.588867 eV
  Excited state 19 (A)                                             [converged]
  Term symbol:  20 (-) A                                    R^2 =  1.71196e-09
  Excitation energy:                                             330.795521 eV
  Excited state 20 (A)                                         [not converged]
  Term symbol:  21 (-) A                                    R^2 =  2.77966e-04
  Excitation energy:                                             332.581369 eV

                    Orbital Energies (a.u.)
 --------------------------------------------------------------

 Alpha MOs
 -- Occupied --
-26.605 -26.531 -26.488 -25.943 -11.752  -2.021  -1.863  -1.773
 -1.204  -1.152  -1.050  -1.028  -1.005  -0.870  -0.853  -0.841
 -0.789  -0.784  -0.313  -0.311  -0.306

 Beta MOs
 -- Occupied --
-26.605 -26.531 -26.488 -25.943 -11.752  -2.021  -1.863  -1.773
 -1.204  -1.152  -1.050  -1.028  -1.005  -0.870  -0.853  -0.841
 -0.789  -0.784  -0.313  -0.311  -0.306

          Ground-State Mulliken Net Atomic Charges

     Atom                 Charge (a.u.)    Spin (a.u.)
  --------------------------------------------------------
      1 C                     1.144340       0.000000
      2 F                     0.025692       0.000000
      3 F                    -0.149702       0.000000
      4 F                    -0.890569       0.000000
      5 F                    -0.129761       0.000000
  --------------------------------------------------------
  Sum of atomic charges =     0.000000

                    Cartesian Multipole Moments
 -----------------------------------------------------------------
    Charge (ESU x 10^10)
                 0.0000
    Dipole Moment (Debye)
         X       5.7612      Y       9.0689      Z      -4.4909
       Tot      11.6450
    Quadrupole Moments (Debye-Ang)
        XX     -32.3908     XY       2.9313     YY      11.5551
        XZ       5.3043     YZ      -6.5549     ZZ     -24.9769

 Total job time:  2137.01s(wall), 3517.68s(cpu)
        *  Thank you very much for using Q-Chem.  Have a nice day.  *
