 Q-Chem 4.3, Q-Chem, Inc., Pleasanton, CA (2015)
 Q-Chem 4.3.0 for Intel X86 Linux

User input:
--------------------------------------------------------------
$comment
XAS calculation for the 2b valence excited for water using cvs-adc(2)-x + 6-311+G* basis set
job 1 - determination of HF orbitals
$end

$molecule
0 1
6  -0.540693  2.714953  -0.1812
9  0.650272  2.368739  -0.018143
9  -1.151727  3.179672  0.806406
9  -1.276393  1.105006  0.533931
9  -1.122545  2.529392  -1.207635
$end

$rem
jobtype      sp
sym_ignore true
exchange     hf
basis        6-31G*
unrestricted true
$end

--------------------------------------------------------------

    8    -435.4604275343      6.98E-06 Convergence criterion met
 Total energy in the final basis set = -435.4604275343
 Total job time:  2.31s(wall), 8.60s(cpu)
        *  Thank you very much for using Q-Chem.  Have a nice day.  *
 Q-Chem 4.3, Q-Chem, Inc., Pleasanton, CA (2015)
 Q-Chem 4.3.0 for Intel X86 Linux

User input:
--------------------------------------------------------------

$comment
job3 - cvs-adc(2) calculation
$end

$molecule
read
$end

$rem
mem_total 3000
mem_static 1500
sym_ignore true
scf_guess read
method cvs-adc(2)
basis 6-31G*
ee_singlets 20
cc_rest_occ 5                  !only excitations from the lowest N orbitals
unrestricted  true
max_scf_cycles 200
$end
--------------------------------------------------------------

             Standard Nuclear Orientation (Angstroms)
    I     Atom           X                Y                Z
 ----------------------------------------------------------------
    1      C      -0.5406930000     2.7149530000    -0.1812000000
    2      F       0.6502720000     2.3687390000    -0.0181430000
    3      F      -1.1517270000     3.1796720000     0.8064060000
    4      F      -1.2763930000     1.1050060000     0.5339310000
    5      F      -1.1225450000     2.5293920000    -1.2076350000
 ----------------------------------------------------------------

    6    -435.4604275713      9.30E-09 Convergence criterion met
 Total energy in the final basis set = -435.4604275713
  Term symbol:  2 (-) A                                     R^2 =  4.66067e-14
  Excitation energy:                                             295.019995 eV
  Term symbol:  3 (-) A                                     R^2 =  8.74424e-14
  Excitation energy:                                             296.875330 eV
  Term symbol:  4 (-) A                                     R^2 =  1.06819e-13
  Excitation energy:                                             303.214304 eV
  Term symbol:  5 (-) A                                     R^2 =  1.16080e-13
  Excitation energy:                                             304.462085 eV
  Term symbol:  6 (-) A                                     R^2 =  3.71201e-14
  Excitation energy:                                             305.285951 eV
  Term symbol:  7 (-) A                                     R^2 =  1.34062e-13
  Excitation energy:                                             305.981381 eV
  Term symbol:  8 (-) A                                     R^2 =  7.58694e-14
  Excitation energy:                                             306.647187 eV
  Term symbol:  9 (-) A                                     R^2 =  6.91698e-14
  Excitation energy:                                             308.068733 eV
  Term symbol:  10 (-) A                                    R^2 =  9.02152e-14
  Excitation energy:                                             311.857761 eV
  Excited state 10 (A)                                             [converged]
  Term symbol:  11 (-) A                                    R^2 =  7.87295e-14
  Excitation energy:                                             313.357356 eV
  Excited state 11 (A)                                             [converged]
  Term symbol:  12 (-) A                                    R^2 =  8.96011e-14
  Excitation energy:                                             314.275920 eV
  Excited state 12 (A)                                             [converged]
  Term symbol:  13 (-) A                                    R^2 =  2.49701e-13
  Excitation energy:                                             314.581576 eV
  Excited state 13 (A)                                             [converged]
  Term symbol:  14 (-) A                                    R^2 =  8.36702e-14
  Excitation energy:                                             314.675958 eV
  Excited state 14 (A)                                             [converged]
  Term symbol:  15 (-) A                                    R^2 =  3.01758e-13
  Excitation energy:                                             315.013935 eV
  Excited state 15 (A)                                             [converged]
  Term symbol:  16 (-) A                                    R^2 =  1.91695e-12
  Excitation energy:                                             319.044109 eV
  Excited state 16 (A)                                             [converged]
  Term symbol:  17 (-) A                                    R^2 =  2.52941e-12
  Excitation energy:                                             319.529189 eV
  Excited state 17 (A)                                             [converged]
  Term symbol:  18 (-) A                                    R^2 =  6.14161e-07
  Excitation energy:                                             331.188747 eV
  Excited state 18 (A)                                             [converged]
  Term symbol:  19 (-) A                                    R^2 =  5.36252e-07
  Excitation energy:                                             331.357760 eV
  Excited state 19 (A)                                         [not converged]
  Term symbol:  20 (-) A                                    R^2 =  1.19699e-04
  Excitation energy:                                             331.823017 eV
  Excited state 20 (A)                                         [not converged]
  Term symbol:  21 (-) A                                    R^2 =  9.06663e-05
  Excitation energy:                                             331.938933 eV

                    Orbital Energies (a.u.)
 --------------------------------------------------------------

 Alpha MOs
 -- Occupied --
-26.486 -26.470 -26.444 -26.093 -11.679  -1.897  -1.803  -1.769
 -1.358  -1.063  -0.978  -0.968  -0.915  -0.807  -0.806  -0.798
 -0.776  -0.752  -0.452  -0.450  -0.441

 Beta MOs
 -- Occupied --
-26.486 -26.470 -26.444 -26.093 -11.679  -1.897  -1.803  -1.769
 -1.358  -1.063  -0.978  -0.968  -0.915  -0.807  -0.806  -0.798
 -0.776  -0.752  -0.452  -0.450  -0.441

          Ground-State Mulliken Net Atomic Charges

     Atom                 Charge (a.u.)    Spin (a.u.)
  --------------------------------------------------------
      1 C                     1.214877       0.000000
      2 F                    -0.198502       0.000000
      3 F                    -0.181681       0.000000
      4 F                    -0.712112       0.000000
      5 F                    -0.122582       0.000000
  --------------------------------------------------------
  Sum of atomic charges =     0.000000

                    Cartesian Multipole Moments
 -----------------------------------------------------------------
    Charge (ESU x 10^10)
                 0.0000
    Dipole Moment (Debye)
         X       2.2387      Y       5.1573      Z      -2.5475
       Tot       6.1724
    Quadrupole Moments (Debye-Ang)
        XX     -27.4624     XY      -0.0835     YY      -2.9242
        XZ       2.6152     YZ      -4.5696     ZZ     -23.8991

 Total job time:  2010.36s(wall), 3245.60s(cpu)
        *  Thank you very much for using Q-Chem.  Have a nice day.  *
