 Q-Chem 4.3, Q-Chem, Inc., Pleasanton, CA (2015)
 Q-Chem 4.3.0 for Intel X86 Linux

User input:
--------------------------------------------------------------
$comment
XAS calculation for the 2b valence excited for water using cvs-adc(2)-x + 6-311+G* basis set
job 1 - determination of HF orbitals
$end

$molecule
0 1
6  -0.645891  2.702425  -0.095041
9  0.55124  2.283503  0.029733
9  -1.131969  3.306117  0.773898
9  -1.110478  1.045821  0.445551
9  -1.145584  2.542884  -1.184606
$end

$rem
jobtype      sp
sym_ignore true
exchange     hf
basis        6-31G*
unrestricted true
$end

--------------------------------------------------------------

    8    -435.4887137207      8.29E-06 Convergence criterion met
 Total energy in the final basis set = -435.4887137207
 Total job time:  2.29s(wall), 10.32s(cpu)
        *  Thank you very much for using Q-Chem.  Have a nice day.  *
 Q-Chem 4.3, Q-Chem, Inc., Pleasanton, CA (2015)
 Q-Chem 4.3.0 for Intel X86 Linux

User input:
--------------------------------------------------------------

$comment
job3 - cvs-adc(2) calculation
$end

$molecule
read
$end

$rem
mem_total 3000
mem_static 1500
sym_ignore true
scf_guess read
method cvs-adc(2)
basis 6-31G*
ee_singlets 20
cc_rest_occ 5                  !only excitations from the lowest N orbitals
unrestricted  true
max_scf_cycles 200
$end
--------------------------------------------------------------

             Standard Nuclear Orientation (Angstroms)
    I     Atom           X                Y                Z
 ----------------------------------------------------------------
    1      C      -0.6458910000     2.7024250000    -0.0950410000
    2      F       0.5512400000     2.2835030000     0.0297330000
    3      F      -1.1319690000     3.3061170000     0.7738980000
    4      F      -1.1104780000     1.0458210000     0.4455510000
    5      F      -1.1455840000     2.5428840000    -1.1846060000
 ----------------------------------------------------------------

    7    -435.4887138864      4.24E-09 Convergence criterion met
 Total energy in the final basis set = -435.4887138864
  Term symbol:  2 (-) A                                     R^2 =  5.92127e-14
  Excitation energy:                                             295.858572 eV
  Term symbol:  3 (-) A                                     R^2 =  5.02173e-14
  Excitation energy:                                             297.770876 eV
  Term symbol:  4 (-) A                                     R^2 =  6.11079e-14
  Excitation energy:                                             303.409791 eV
  Term symbol:  5 (-) A                                     R^2 =  7.21151e-14
  Excitation energy:                                             304.625353 eV
  Term symbol:  6 (-) A                                     R^2 =  7.23634e-14
  Excitation energy:                                             305.559597 eV
  Term symbol:  7 (-) A                                     R^2 =  3.31268e-14
  Excitation energy:                                             306.571375 eV
  Term symbol:  8 (-) A                                     R^2 =  4.73721e-14
  Excitation energy:                                             307.086574 eV
  Term symbol:  9 (-) A                                     R^2 =  6.66972e-14
  Excitation energy:                                             309.199525 eV
  Term symbol:  10 (-) A                                    R^2 =  7.56036e-14
  Excitation energy:                                             311.793906 eV
  Excited state 10 (A)                                             [converged]
  Term symbol:  11 (-) A                                    R^2 =  3.66960e-14
  Excitation energy:                                             313.376910 eV
  Excited state 11 (A)                                             [converged]
  Term symbol:  12 (-) A                                    R^2 =  5.22127e-14
  Excitation energy:                                             314.007873 eV
  Excited state 12 (A)                                             [converged]
  Term symbol:  13 (-) A                                    R^2 =  3.74724e-14
  Excitation energy:                                             314.386827 eV
  Excited state 13 (A)                                             [converged]
  Term symbol:  14 (-) A                                    R^2 =  7.06092e-14
  Excitation energy:                                             314.518518 eV
  Excited state 14 (A)                                             [converged]
  Term symbol:  15 (-) A                                    R^2 =  5.92911e-13
  Excitation energy:                                             315.009495 eV
  Excited state 15 (A)                                             [converged]
  Term symbol:  16 (-) A                                    R^2 =  4.69511e-12
  Excitation energy:                                             318.141806 eV
  Excited state 16 (A)                                             [converged]
  Term symbol:  17 (-) A                                    R^2 =  3.54385e-12
  Excitation energy:                                             318.575956 eV
  Excited state 17 (A)                                             [converged]
  Term symbol:  18 (-) A                                    R^2 =  1.01526e-08
  Excitation energy:                                             330.512842 eV
  Excited state 18 (A)                                             [converged]
  Term symbol:  19 (-) A                                    R^2 =  2.41196e-08
  Excitation energy:                                             330.687769 eV
  Excited state 19 (A)                                             [converged]
  Term symbol:  20 (-) A                                    R^2 =  8.04710e-07
  Excitation energy:                                             331.349290 eV
  Excited state 20 (A)                                         [not converged]
  Term symbol:  21 (-) A                                    R^2 =  2.49402e-06
  Excitation energy:                                             331.482262 eV

                    Orbital Energies (a.u.)
 --------------------------------------------------------------

 Alpha MOs
 -- Occupied --
-26.485 -26.456 -26.414 -26.134 -11.657  -1.911  -1.815  -1.741
 -1.399  -1.061  -0.982  -0.963  -0.921  -0.808  -0.799  -0.792
 -0.757  -0.732  -0.489  -0.486  -0.478

 Beta MOs
 -- Occupied --
-26.485 -26.456 -26.414 -26.134 -11.657  -1.911  -1.815  -1.741
 -1.399  -1.061  -0.982  -0.963  -0.921  -0.808  -0.799  -0.792
 -0.757  -0.732  -0.489  -0.486  -0.478

          Ground-State Mulliken Net Atomic Charges

     Atom                 Charge (a.u.)    Spin (a.u.)
  --------------------------------------------------------
      1 C                     1.182215       0.000000
      2 F                    -0.241794       0.000000
      3 F                    -0.108009       0.000000
      4 F                    -0.665341       0.000000
      5 F                    -0.167072       0.000000
  --------------------------------------------------------
  Sum of atomic charges =     0.000000

                    Cartesian Multipole Moments
 -----------------------------------------------------------------
    Charge (ESU x 10^10)
                 0.0000
    Dipole Moment (Debye)
         X       0.8642      Y       4.9661      Z      -1.3895
       Tot       5.2287
    Quadrupole Moments (Debye-Ang)
        XX     -25.5087     XY      -2.7533     YY      -3.5217
        XZ       1.3197     YZ      -1.8461     ZZ     -23.8105

 Total job time:  2061.15s(wall), 3365.80s(cpu)
        *  Thank you very much for using Q-Chem.  Have a nice day.  *
