 Q-Chem 4.3, Q-Chem, Inc., Pleasanton, CA (2015)
 Q-Chem 4.3.0 for Intel X86 Linux

User input:
--------------------------------------------------------------
$comment
XAS calculation for the 2b valence excited for water using cvs-adc(2)-x + 6-311+G* basis set
job 1 - determination of HF orbitals
$end

$molecule
0 1
6  -0.669177  2.408702  -0.035249
9  0.615739  2.361266  -0.0051
9  -1.149972  3.278934  0.806351
9  -1.172195  1.18307  0.450292
9  -1.137761  2.555244  -1.215956
$end

$rem
jobtype      sp
sym_ignore true
exchange     hf
basis        6-31G*
unrestricted true
$end

--------------------------------------------------------------

    8    -435.6337304128      3.91E-06 Convergence criterion met
 Total energy in the final basis set = -435.6337304128
 Total job time:  2.24s(wall), 10.43s(cpu)
        *  Thank you very much for using Q-Chem.  Have a nice day.  *
 Q-Chem 4.3, Q-Chem, Inc., Pleasanton, CA (2015)
 Q-Chem 4.3.0 for Intel X86 Linux

User input:
--------------------------------------------------------------

$comment
job3 - cvs-adc(2) calculation
$end

$molecule
read
$end

$rem
mem_total 3000
mem_static 1500
sym_ignore true
scf_guess read
method cvs-adc(2)
basis 6-31G*
ee_singlets 20
cc_rest_occ 5                  !only excitations from the lowest N orbitals
unrestricted  true
max_scf_cycles 200
$end
--------------------------------------------------------------

             Standard Nuclear Orientation (Angstroms)
    I     Atom           X                Y                Z
 ----------------------------------------------------------------
    1      C      -0.6691770000     2.4087020000    -0.0352490000
    2      F       0.6157390000     2.3612660000    -0.0051000000
    3      F      -1.1499720000     3.2789340000     0.8063510000
    4      F      -1.1721950000     1.1830700000     0.4502920000
    5      F      -1.1377610000     2.5552440000    -1.2159560000
 ----------------------------------------------------------------

    5    -435.6337304686      6.00E-09 Convergence criterion met
 Total energy in the final basis set = -435.6337304686
  Term symbol:  2 (-) A                                     R^2 =  1.34324e-12
  Excitation energy:                                             299.545814 eV
  Term symbol:  3 (-) A                                     R^2 =  2.82950e-13
  Excitation energy:                                             301.651410 eV
  Term symbol:  4 (-) A                                     R^2 =  7.55537e-13
  Excitation energy:                                             302.024416 eV
  Term symbol:  5 (-) A                                     R^2 =  1.51699e-13
  Excitation energy:                                             302.385669 eV
  Term symbol:  6 (-) A                                     R^2 =  8.13416e-13
  Excitation energy:                                             303.456009 eV
  Term symbol:  7 (-) A                                     R^2 =  4.98562e-13
  Excitation energy:                                             304.175917 eV
  Term symbol:  8 (-) A                                     R^2 =  4.57184e-13
  Excitation energy:                                             304.545899 eV
  Term symbol:  9 (-) A                                     R^2 =  4.84121e-13
  Excitation energy:                                             306.002835 eV
  Term symbol:  10 (-) A                                    R^2 =  5.28295e-13
  Excitation energy:                                             312.896413 eV
  Excited state 10 (A)                                             [converged]
  Term symbol:  11 (-) A                                    R^2 =  5.50072e-13
  Excitation energy:                                             313.623530 eV
  Excited state 11 (A)                                             [converged]
  Term symbol:  12 (-) A                                    R^2 =  5.36615e-13
  Excitation energy:                                             313.777071 eV
  Excited state 12 (A)                                             [converged]
  Term symbol:  13 (-) A                                    R^2 =  3.30980e-13
  Excitation energy:                                             313.935937 eV
  Excited state 13 (A)                                             [converged]
  Term symbol:  14 (-) A                                    R^2 =  7.58207e-13
  Excitation energy:                                             314.202049 eV
  Excited state 14 (A)                                             [converged]
  Term symbol:  15 (-) A                                    R^2 =  2.48715e-13
  Excitation energy:                                             314.344093 eV
  Excited state 15 (A)                                             [converged]
  Term symbol:  16 (-) A                                    R^2 =  5.73996e-13
  Excitation energy:                                             314.563460 eV
  Excited state 16 (A)                                             [converged]
  Term symbol:  17 (-) A                                    R^2 =  7.74229e-13
  Excitation energy:                                             315.012671 eV
  Excited state 17 (A)                                             [converged]
  Term symbol:  18 (-) A                                    R^2 =  6.79767e-08
  Excitation energy:                                             330.141371 eV
  Excited state 18 (A)                                             [converged]
  Term symbol:  19 (-) A                                    R^2 =  8.91854e-09
  Excitation energy:                                             330.166965 eV
  Excited state 19 (A)                                             [converged]
  Term symbol:  20 (-) A                                    R^2 =  5.26657e-07
  Excitation energy:                                             330.290214 eV
  Excited state 20 (A)                                             [converged]
  Term symbol:  21 (-) A                                    R^2 =  2.88028e-07
  Excitation energy:                                             330.316992 eV

                    Orbital Energies (a.u.)
 --------------------------------------------------------------

 Alpha MOs
 -- Occupied --
-26.395 -26.395 -26.381 -26.333 -11.614  -1.812  -1.705  -1.691
 -1.618  -1.008  -0.897  -0.893  -0.874  -0.761  -0.758  -0.720
 -0.714  -0.688  -0.673  -0.656  -0.651

 Beta MOs
 -- Occupied --
-26.395 -26.395 -26.381 -26.333 -11.614  -1.812  -1.705  -1.691
 -1.618  -1.008  -0.897  -0.893  -0.874  -0.761  -0.758  -0.720
 -0.714  -0.688  -0.673  -0.656  -0.651

          Ground-State Mulliken Net Atomic Charges

     Atom                 Charge (a.u.)    Spin (a.u.)
  --------------------------------------------------------
      1 C                     1.331802       0.000000
      2 F                    -0.300893       0.000000
      3 F                    -0.320829       0.000000
      4 F                    -0.415642       0.000000
      5 F                    -0.294439       0.000000
  --------------------------------------------------------
  Sum of atomic charges =     0.000000

                    Cartesian Multipole Moments
 -----------------------------------------------------------------
    Charge (ESU x 10^10)
                 0.0000
    Dipole Moment (Debye)
         X       0.4175      Y       0.7179      Z      -0.4662
       Tot       0.9524
    Quadrupole Moments (Debye-Ang)
        XX     -25.4092     XY       0.2280     YY     -22.0010
        XZ       0.4920     YZ      -0.9156     ZZ     -24.8371

 Total job time:  1851.63s(wall), 3034.54s(cpu)
        *  Thank you very much for using Q-Chem.  Have a nice day.  *
