 Q-Chem 4.3, Q-Chem, Inc., Pleasanton, CA (2015)
 Q-Chem 4.3.0 for Intel X86 Linux

User input:
--------------------------------------------------------------
$comment
XAS calculation for the 2b valence excited for water using cvs-adc(2)-x + 6-311+G* basis set
job 1 - determination of HF orbitals
$end

$molecule
0 1
6  -0.401352  2.819899  -0.278893
9  0.739741  2.675119  -0.156547
9  -1.092196  3.127776  0.759113
9  -1.654312  0.667249  0.844109
9  -0.996953  2.685581  -1.269158
$end

$rem
jobtype      sp
sym_ignore true
exchange     hf
basis        6-31G*
unrestricted true
$end

--------------------------------------------------------------

   10    -435.3611801845      5.22E-06 Convergence criterion met
 Total energy in the final basis set = -435.3611801845
 Total job time:  2.70s(wall), 11.82s(cpu)
        *  Thank you very much for using Q-Chem.  Have a nice day.  *
 Q-Chem 4.3, Q-Chem, Inc., Pleasanton, CA (2015)
 Q-Chem 4.3.0 for Intel X86 Linux

User input:
--------------------------------------------------------------

$comment
job3 - cvs-adc(2) calculation
$end

$molecule
read
$end

$rem
mem_total 3000
mem_static 1500
sym_ignore true
scf_guess read
method cvs-adc(2)
basis 6-31G*
ee_singlets 20
cc_rest_occ 5                  !only excitations from the lowest N orbitals
unrestricted  true
max_scf_cycles 200
$end
--------------------------------------------------------------

             Standard Nuclear Orientation (Angstroms)
    I     Atom           X                Y                Z
 ----------------------------------------------------------------
    1      C      -0.4013520000     2.8198990000    -0.2788930000
    2      F       0.7397410000     2.6751190000    -0.1565470000
    3      F      -1.0921960000     3.1277760000     0.7591130000
    4      F      -1.6543120000     0.6672490000     0.8441090000
    5      F      -0.9969530000     2.6855810000    -1.2691580000
 ----------------------------------------------------------------

    6    -435.3611804581      8.01E-09 Convergence criterion met
 Total energy in the final basis set = -435.3611804581
  Term symbol:  2 (-) A                                     R^2 =  1.12675e-13
  Excitation energy:                                             294.875499 eV
  Term symbol:  3 (-) A                                     R^2 =  9.56790e-14
  Excitation energy:                                             296.809242 eV
  Term symbol:  4 (-) A                                     R^2 =  1.01034e-13
  Excitation energy:                                             303.048146 eV
  Term symbol:  5 (-) A                                     R^2 =  7.46355e-14
  Excitation energy:                                             304.794307 eV
  Term symbol:  6 (-) A                                     R^2 =  3.37887e-14
  Excitation energy:                                             305.268422 eV
  Term symbol:  7 (-) A                                     R^2 =  7.43336e-14
  Excitation energy:                                             307.088999 eV
  Term symbol:  8 (-) A                                     R^2 =  6.00436e-14
  Excitation energy:                                             308.214282 eV
  Term symbol:  9 (-) A                                     R^2 =  1.17567e-13
  Excitation energy:                                             310.371347 eV
  Term symbol:  10 (-) A                                    R^2 =  1.95583e-13
  Excitation energy:                                             312.743778 eV
  Excited state 10 (A)                                             [converged]
  Term symbol:  11 (-) A                                    R^2 =  1.74138e-13
  Excitation energy:                                             314.167399 eV
  Excited state 11 (A)                                             [converged]
  Term symbol:  12 (-) A                                    R^2 =  1.33767e-13
  Excitation energy:                                             314.214445 eV
  Excited state 12 (A)                                             [converged]
  Term symbol:  13 (-) A                                    R^2 =  1.18513e-13
  Excitation energy:                                             314.790935 eV
  Excited state 13 (A)                                             [converged]
  Term symbol:  14 (-) A                                    R^2 =  4.19956e-13
  Excitation energy:                                             315.038005 eV
  Excited state 14 (A)                                             [converged]
  Term symbol:  15 (-) A                                    R^2 =  6.08028e-13
  Excitation energy:                                             315.588755 eV
  Excited state 15 (A)                                             [converged]
  Term symbol:  16 (-) A                                    R^2 =  9.95384e-11
  Excitation energy:                                             317.164203 eV
  Excited state 16 (A)                                             [converged]
  Term symbol:  17 (-) A                                    R^2 =  3.73764e-10
  Excitation energy:                                             318.029762 eV
  Excited state 17 (A)                                             [converged]
  Term symbol:  18 (-) A                                    R^2 =  5.57810e-08
  Excitation energy:                                             331.248709 eV
  Excited state 18 (A)                                             [converged]
  Term symbol:  19 (-) A                                    R^2 =  1.37889e-07
  Excitation energy:                                             331.433501 eV
  Excited state 19 (A)                                             [converged]
  Term symbol:  20 (-) A                                    R^2 =  1.43659e-07
  Excitation energy:                                             331.639415 eV
  Excited state 20 (A)                                             [converged]
  Term symbol:  21 (-) A                                    R^2 =  6.97837e-07
  Excitation energy:                                             331.779634 eV

                    Orbital Energies (a.u.)
 --------------------------------------------------------------

 Alpha MOs
 -- Occupied --
-26.586 -26.571 -26.491 -25.955 -11.749  -2.017  -1.932  -1.805
 -1.211  -1.151  -1.082  -1.049  -1.019  -0.900  -0.888  -0.867
 -0.807  -0.802  -0.321  -0.320  -0.311

 Beta MOs
 -- Occupied --
-26.586 -26.571 -26.491 -25.955 -11.749  -2.017  -1.932  -1.805
 -1.211  -1.151  -1.082  -1.049  -1.019  -0.900  -0.888  -0.867
 -0.807  -0.802  -0.321  -0.320  -0.311

          Ground-State Mulliken Net Atomic Charges

     Atom                 Charge (a.u.)    Spin (a.u.)
  --------------------------------------------------------
      1 C                     1.098321       0.000000
      2 F                    -0.037738       0.000000
      3 F                    -0.155738       0.000000
      4 F                    -0.869553       0.000000
      5 F                    -0.035292       0.000000
  --------------------------------------------------------
  Sum of atomic charges =     0.000000

                    Cartesian Multipole Moments
 -----------------------------------------------------------------
    Charge (ESU x 10^10)
                 0.0000
    Dipole Moment (Debye)
         X       5.4487      Y       8.7845      Z      -5.0255
       Tot      11.4940
    Quadrupole Moments (Debye-Ang)
        XX     -33.1053     XY       0.9551     YY       8.3089
        XZ       6.4192     YZ      -6.9649     ZZ     -24.9377

 Total job time:  1514.99s(wall), 2480.15s(cpu)
        *  Thank you very much for using Q-Chem.  Have a nice day.  *
