 Q-Chem 4.3, Q-Chem, Inc., Pleasanton, CA (2015)
 Q-Chem 4.3.0 for Intel X86 Linux

User input:
--------------------------------------------------------------
$comment
XAS calculation for the 2b valence excited for water using cvs-adc(2)-x + 6-311+G* basis set
job 1 - determination of HF orbitals
$end

$molecule
0 1
6  -0.581918  2.66315  -0.154102
9  0.647872  2.565652  -0.073728
9  -1.078257  3.603195  0.706796
9  -1.405612  0.196047  0.787948
9  -1.068853  2.852722  -1.315577
$end

$rem
jobtype      sp
sym_ignore true
exchange     hf
basis        6-31G*
unrestricted true
$end

--------------------------------------------------------------

   12    -435.3525252034      8.75E-06 Convergence criterion met
 Total energy in the final basis set = -435.3525252034
 Total job time:  3.19s(wall), 14.23s(cpu)
        *  Thank you very much for using Q-Chem.  Have a nice day.  *
 Q-Chem 4.3, Q-Chem, Inc., Pleasanton, CA (2015)
 Q-Chem 4.3.0 for Intel X86 Linux

User input:
--------------------------------------------------------------

$comment
job3 - cvs-adc(2) calculation
$end

$molecule
read
$end

$rem
mem_total 3000
mem_static 1500
sym_ignore true
scf_guess read
method cvs-adc(2)
basis 6-31G*
ee_singlets 20
cc_rest_occ 5                  !only excitations from the lowest N orbitals
unrestricted  true
max_scf_cycles 200
$end
--------------------------------------------------------------

             Standard Nuclear Orientation (Angstroms)
    I     Atom           X                Y                Z
 ----------------------------------------------------------------
    1      C      -0.5819180000     2.6631500000    -0.1541020000
    2      F       0.6478720000     2.5656520000    -0.0737280000
    3      F      -1.0782570000     3.6031950000     0.7067960000
    4      F      -1.4056120000     0.1960470000     0.7879480000
    5      F      -1.0688530000     2.8527220000    -1.3155770000
 ----------------------------------------------------------------

    9    -435.3525259028      2.78E-09 Convergence criterion met
 Total energy in the final basis set = -435.3525259028
  Term symbol:  2 (-) A                                     R^2 =  4.58344e-07
  Excitation energy:                                             294.042857 eV
  Term symbol:  3 (-) A                                     R^2 =  2.02969e-08
  Excitation energy:                                             295.823385 eV
  Term symbol:  4 (-) A                                     R^2 =  2.13868e-08
  Excitation energy:                                             300.799576 eV
  Term symbol:  5 (-) A                                     R^2 =  5.11860e-08
  Excitation energy:                                             302.863959 eV
  Term symbol:  6 (-) A                                     R^2 =  2.85070e-08
  Excitation energy:                                             302.955519 eV
  Term symbol:  7 (-) A                                     R^2 =  3.36244e-08
  Excitation energy:                                             303.945617 eV
  Term symbol:  8 (-) A                                     R^2 =  1.11842e-07
  Excitation energy:                                             304.990462 eV
  Term symbol:  9 (-) A                                     R^2 =  5.59859e-08
  Excitation energy:                                             305.856510 eV
  Term symbol:  10 (-) A                                    R^2 =  3.71773e-09
  Excitation energy:                                             313.305982 eV
  Excited state 10 (A)                                             [converged]
  Term symbol:  11 (-) A                                    R^2 =  2.09618e-07
  Excitation energy:                                             313.740214 eV
  Excited state 11 (A)                                             [converged]
  Term symbol:  12 (-) A                                    R^2 =  2.86000e-08
  Excitation energy:                                             313.945985 eV
  Excited state 12 (A)                                             [converged]
  Term symbol:  13 (-) A                                    R^2 =  6.49338e-08
  Excitation energy:                                             314.036435 eV
  Excited state 13 (A)                                             [converged]
  Term symbol:  14 (-) A                                    R^2 =  4.33249e-08
  Excitation energy:                                             314.250796 eV
  Excited state 14 (A)                                             [converged]
  Term symbol:  15 (-) A                                    R^2 =  1.43367e-08
  Excitation energy:                                             314.311588 eV
  Excited state 15 (A)                                             [converged]
  Term symbol:  16 (-) A                                    R^2 =  1.37246e-08
  Excitation energy:                                             314.472985 eV
  Excited state 16 (A)                                             [converged]
  Term symbol:  17 (-) A                                    R^2 =  1.44977e-07
  Excitation energy:                                             315.414354 eV
  Excited state 17 (A)                                             [converged]
  Term symbol:  18 (-) A                                    R^2 =  3.48848e-08
  Excitation energy:                                             326.055717 eV
  Excited state 18 (A)                                             [converged]
  Term symbol:  19 (-) A                                    R^2 =  3.04903e-07
  Excitation energy:                                             326.153214 eV
  Excited state 19 (A)                                         [not converged]
  Term symbol:  20 (-) A                                    R^2 =  3.93060e-04
  Excitation energy:                                             331.034030 eV
  Excited state 20 (A)                                         [not converged]
  Term symbol:  21 (-) A                                    R^2 =  4.41395e-04
  Excitation energy:                                             331.159581 eV

                    Orbital Energies (a.u.)
 --------------------------------------------------------------

 Alpha MOs
 -- Occupied --
-26.517 -26.504 -26.465 -26.142 -11.720  -1.899  -1.812  -1.742
 -1.353  -1.088  -0.981  -0.963  -0.922  -0.835  -0.810  -0.808
 -0.775  -0.767  -0.472  -0.472  -0.390

 Beta MOs
 -- Occupied --
-26.517 -26.504 -26.465 -26.142 -11.720  -1.899  -1.812  -1.742
 -1.353  -1.088  -0.981  -0.963  -0.922  -0.835  -0.810  -0.808
 -0.775  -0.767  -0.472  -0.472  -0.390

          Ground-State Mulliken Net Atomic Charges

     Atom                 Charge (a.u.)    Spin (a.u.)
  --------------------------------------------------------
      1 C                     1.146345       0.000000
      2 F                    -0.140241       0.000000
      3 F                    -0.268062       0.000000
      4 F                    -0.552366       0.000000
      5 F                    -0.185677       0.000000
  --------------------------------------------------------
  Sum of atomic charges =     0.000000

                    Cartesian Multipole Moments
 -----------------------------------------------------------------
    Charge (ESU x 10^10)
                 0.0000
    Dipole Moment (Debye)
         X       2.4389      Y       5.9498      Z      -2.7035
       Tot       6.9755
    Quadrupole Moments (Debye-Ang)
        XX     -27.9851     XY      -1.7855     YY      -7.1483
        XZ       3.2331     YZ      -2.6482     ZZ     -25.2238

 Total job time:  2171.03s(wall), 3538.31s(cpu)
        *  Thank you very much for using Q-Chem.  Have a nice day.  *
