 Q-Chem 4.3, Q-Chem, Inc., Pleasanton, CA (2015)
 Q-Chem 4.3.0 for Intel X86 Linux

User input:
--------------------------------------------------------------
$comment
XAS calculation for the 2b valence excited for water using cvs-adc(2)-x + 6-311+G* basis set
job 1 - determination of HF orbitals
$end

$molecule
0 1
6  -0.519664  2.946827  -0.211865
9  0.545057  2.310781  0.020641
9  -1.1565  3.273284  0.789369
9  -1.197302  0.908477  0.525424
9  -1.148308  2.556069  -1.18284
$end

$rem
jobtype      sp
sym_ignore true
exchange     hf
basis        6-31G*
unrestricted true
$end

--------------------------------------------------------------

   11    -435.3619535460      8.53E-06 Convergence criterion met
 Total energy in the final basis set = -435.3619535460
 Total job time:  7.35s(wall), 13.11s(cpu)
        *  Thank you very much for using Q-Chem.  Have a nice day.  *
 Q-Chem 4.3, Q-Chem, Inc., Pleasanton, CA (2015)
 Q-Chem 4.3.0 for Intel X86 Linux

User input:
--------------------------------------------------------------

$comment
job3 - cvs-adc(2) calculation
$end

$molecule
read
$end

$rem
mem_total 3000
mem_static 1500
sym_ignore true
scf_guess read
method cvs-adc(2)
basis 6-31G*
ee_singlets 20
cc_rest_occ 5                  !only excitations from the lowest N orbitals
unrestricted  true
max_scf_cycles 200
$end
--------------------------------------------------------------

             Standard Nuclear Orientation (Angstroms)
    I     Atom           X                Y                Z
 ----------------------------------------------------------------
    1      C      -0.5196640000     2.9468270000    -0.2118650000
    2      F       0.5450570000     2.3107810000     0.0206410000
    3      F      -1.1565000000     3.2732840000     0.7893690000
    4      F      -1.1973020000     0.9084770000     0.5254240000
    5      F      -1.1483080000     2.5560690000    -1.1828400000
 ----------------------------------------------------------------

    9    -435.3619543860      2.82E-09 Convergence criterion met
 Total energy in the final basis set = -435.3619543860
  Term symbol:  2 (-) A                                     R^2 =  5.19755e-14
  Excitation energy:                                             293.089926 eV
  Term symbol:  3 (-) A                                     R^2 =  3.64919e-14
  Excitation energy:                                             294.901290 eV
  Term symbol:  4 (-) A                                     R^2 =  5.31142e-14
  Excitation energy:                                             303.881768 eV
  Term symbol:  5 (-) A                                     R^2 =  1.18167e-13
  Excitation energy:                                             304.696492 eV
  Term symbol:  6 (-) A                                     R^2 =  7.97552e-14
  Excitation energy:                                             305.006165 eV
  Term symbol:  7 (-) A                                     R^2 =  4.94738e-14
  Excitation energy:                                             305.942746 eV
  Term symbol:  8 (-) A                                     R^2 =  4.84531e-14
  Excitation energy:                                             306.746038 eV
  Term symbol:  9 (-) A                                     R^2 =  5.78462e-14
  Excitation energy:                                             307.010876 eV
  Term symbol:  10 (-) A                                    R^2 =  1.09142e-13
  Excitation energy:                                             312.038002 eV
  Excited state 10 (A)                                             [converged]
  Term symbol:  11 (-) A                                    R^2 =  9.64572e-14
  Excitation energy:                                             313.614538 eV
  Excited state 11 (A)                                             [converged]
  Term symbol:  12 (-) A                                    R^2 =  6.95013e-14
  Excitation energy:                                             313.981374 eV
  Excited state 12 (A)                                             [converged]
  Term symbol:  13 (-) A                                    R^2 =  9.43254e-14
  Excitation energy:                                             314.116215 eV
  Excited state 13 (A)                                             [converged]
  Term symbol:  14 (-) A                                    R^2 =  2.59365e-13
  Excitation energy:                                             314.479387 eV
  Excited state 14 (A)                                             [converged]
  Term symbol:  15 (-) A                                    R^2 =  5.41202e-13
  Excitation energy:                                             314.658057 eV
  Excited state 15 (A)                                             [converged]
  Term symbol:  16 (-) A                                    R^2 =  1.59094e-10
  Excitation energy:                                             320.250318 eV
  Excited state 16 (A)                                             [converged]
  Term symbol:  17 (-) A                                    R^2 =  3.67434e-12
  Excitation energy:                                             320.748484 eV
  Excited state 17 (A)                                         [not converged]
  Term symbol:  18 (-) A                                    R^2 =  1.72476e-05
  Excitation energy:                                             331.988583 eV
  Excited state 18 (A)                                         [not converged]
  Term symbol:  19 (-) A                                    R^2 =  3.11820e-05
  Excitation energy:                                             332.078656 eV
  Excited state 19 (A)                                         [not converged]
  Term symbol:  20 (-) A                                    R^2 =  5.86635e-05
  Excitation energy:                                             332.106935 eV
  Excited state 20 (A)                                         [not converged]
  Term symbol:  21 (-) A                                    R^2 =  1.07683e-04
  Excitation energy:                                             332.212951 eV

                    Orbital Energies (a.u.)
 --------------------------------------------------------------

 Alpha MOs
 -- Occupied --
-26.520 -26.516 -26.496 -25.971 -11.729  -1.928  -1.831  -1.802
 -1.243  -1.096  -1.007  -0.999  -0.942  -0.840  -0.835  -0.813
 -0.796  -0.786  -0.347  -0.345  -0.344

 Beta MOs
 -- Occupied --
-26.520 -26.516 -26.496 -25.971 -11.729  -1.928  -1.831  -1.802
 -1.243  -1.096  -1.007  -0.999  -0.942  -0.840  -0.835  -0.813
 -0.796  -0.786  -0.347  -0.345  -0.344

          Ground-State Mulliken Net Atomic Charges

     Atom                 Charge (a.u.)    Spin (a.u.)
  --------------------------------------------------------
      1 C                     1.219140       0.000000
      2 F                    -0.134384       0.000000
      3 F                    -0.110119       0.000000
      4 F                    -0.876859       0.000000
      5 F                    -0.097779       0.000000
  --------------------------------------------------------
  Sum of atomic charges =     0.000000

                    Cartesian Multipole Moments
 -----------------------------------------------------------------
    Charge (ESU x 10^10)
                 0.0000
    Dipole Moment (Debye)
         X       2.7136      Y       8.5519      Z      -3.1285
       Tot       9.5019
    Quadrupole Moments (Debye-Ang)
        XX     -27.5660     XY      -1.8359     YY      11.2439
        XZ       3.0182     YZ      -5.1070     ZZ     -23.5882

 Total job time:  1929.55s(wall), 3144.01s(cpu)
        *  Thank you very much for using Q-Chem.  Have a nice day.  *
