 Q-Chem 4.3, Q-Chem, Inc., Pleasanton, CA (2015)
 Q-Chem 4.3.0 for Intel X86 Linux

User input:
--------------------------------------------------------------
$comment
XAS calculation for the 2b valence excited for water using cvs-adc(2)-x + 6-311+G* basis set
job 1 - determination of HF orbitals
$end

$molecule
0 1
6  -0.620733  2.578546  -0.078767
9  0.592573  2.329811  0.012336
9  -1.152124  3.285666  0.800095
9  -1.170718  1.112504  0.464973
9  -1.151389  2.549858  -1.210101
$end

$rem
jobtype      sp
sym_ignore true
exchange     hf
basis        6-31G*
unrestricted true
$end

--------------------------------------------------------------

    8    -435.5620307093      8.67E-06 Convergence criterion met
 Total energy in the final basis set = -435.5620307093
 Total job time:  5.43s(wall), 11.87s(cpu)
        *  Thank you very much for using Q-Chem.  Have a nice day.  *
 Q-Chem 4.3, Q-Chem, Inc., Pleasanton, CA (2015)
 Q-Chem 4.3.0 for Intel X86 Linux

User input:
--------------------------------------------------------------

$comment
job3 - cvs-adc(2) calculation
$end

$molecule
read
$end

$rem
mem_total 3000
mem_static 1500
sym_ignore true
scf_guess read
method cvs-adc(2)
basis 6-31G*
ee_singlets 20
cc_rest_occ 5                  !only excitations from the lowest N orbitals
unrestricted  true
max_scf_cycles 200
$end
--------------------------------------------------------------

             Standard Nuclear Orientation (Angstroms)
    I     Atom           X                Y                Z
 ----------------------------------------------------------------
    1      C      -0.6207330000     2.5785460000    -0.0787670000
    2      F       0.5925730000     2.3298110000     0.0123360000
    3      F      -1.1521240000     3.2856660000     0.8000950000
    4      F      -1.1707180000     1.1125040000     0.4649730000
    5      F      -1.1513890000     2.5498580000    -1.2101010000
 ----------------------------------------------------------------

    6    -435.5620308802      6.85E-09 Convergence criterion met
 Total energy in the final basis set = -435.5620308802
  Term symbol:  2 (-) A                                     R^2 =  2.97435e-12
  Excitation energy:                                             296.787257 eV
  Term symbol:  3 (-) A                                     R^2 =  3.76735e-12
  Excitation energy:                                             298.756599 eV
  Term symbol:  4 (-) A                                     R^2 =  1.06268e-11
  Excitation energy:                                             303.318071 eV
  Term symbol:  5 (-) A                                     R^2 =  1.49012e-10
  Excitation energy:                                             304.114770 eV
  Term symbol:  6 (-) A                                     R^2 =  2.07191e-10
  Excitation energy:                                             304.298270 eV
  Term symbol:  7 (-) A                                     R^2 =  2.13571e-11
  Excitation energy:                                             305.493345 eV
  Term symbol:  8 (-) A                                     R^2 =  2.61615e-11
  Excitation energy:                                             306.315351 eV
  Term symbol:  9 (-) A                                     R^2 =  2.84657e-10
  Excitation energy:                                             306.494492 eV
  Term symbol:  10 (-) A                                    R^2 =  4.07130e-12
  Excitation energy:                                             311.904043 eV
  Excited state 10 (A)                                             [converged]
  Term symbol:  11 (-) A                                    R^2 =  2.25016e-12
  Excitation energy:                                             313.131618 eV
  Excited state 11 (A)                                             [converged]
  Term symbol:  12 (-) A                                    R^2 =  4.59722e-11
  Excitation energy:                                             314.235849 eV
  Excited state 12 (A)                                             [converged]
  Term symbol:  13 (-) A                                    R^2 =  5.78430e-11
  Excitation energy:                                             314.245968 eV
  Excited state 13 (A)                                             [converged]
  Term symbol:  14 (-) A                                    R^2 =  5.76021e-12
  Excitation energy:                                             314.622960 eV
  Excited state 14 (A)                                             [converged]
  Term symbol:  15 (-) A                                    R^2 =  1.86390e-10
  Excitation energy:                                             314.640830 eV
  Excited state 15 (A)                                             [converged]
  Term symbol:  16 (-) A                                    R^2 =  4.54397e-10
  Excitation energy:                                             316.905591 eV
  Excited state 16 (A)                                             [converged]
  Term symbol:  17 (-) A                                    R^2 =  8.66902e-09
  Excitation energy:                                             317.332575 eV
  Excited state 17 (A)                                         [not converged]
  Term symbol:  18 (-) A                                    R^2 =  5.34504e-04
  Excitation energy:                                             331.182749 eV
  Excited state 18 (A)                                         [not converged]
  Term symbol:  19 (-) A                                    R^2 =  1.23626e-03
  Excitation energy:                                             331.227054 eV
  Excited state 19 (A)                                         [not converged]
  Term symbol:  20 (-) A                                    R^2 =  2.58062e-04
  Excitation energy:                                             331.256010 eV
  Excited state 20 (A)                                         [not converged]
  Term symbol:  21 (-) A                                    R^2 =  2.55791e-04
  Excitation energy:                                             331.270233 eV

                    Orbital Energies (a.u.)
 --------------------------------------------------------------

 Alpha MOs
 -- Occupied --
-26.429 -26.427 -26.427 -26.219 -11.638  -1.852  -1.752  -1.748
 -1.480  -1.031  -0.936  -0.935  -0.885  -0.782  -0.780  -0.758
 -0.756  -0.725  -0.559  -0.559  -0.555

 Beta MOs
 -- Occupied --
-26.429 -26.427 -26.427 -26.219 -11.638  -1.852  -1.752  -1.748
 -1.480  -1.031  -0.936  -0.935  -0.885  -0.782  -0.780  -0.758
 -0.756  -0.725  -0.559  -0.559  -0.555

          Ground-State Mulliken Net Atomic Charges

     Atom                 Charge (a.u.)    Spin (a.u.)
  --------------------------------------------------------
      1 C                     1.272951       0.000000
      2 F                    -0.230008       0.000000
      3 F                    -0.236151       0.000000
      4 F                    -0.567100       0.000000
      5 F                    -0.239692       0.000000
  --------------------------------------------------------
  Sum of atomic charges =     0.000000

                    Cartesian Multipole Moments
 -----------------------------------------------------------------
    Charge (ESU x 10^10)
                 0.0000
    Dipole Moment (Debye)
         X       1.1582      Y       2.9983      Z      -1.1011
       Tot       3.3976
    Quadrupole Moments (Debye-Ang)
        XX     -25.9984     XY      -0.2253     YY     -12.2193
        XZ       1.0895     YZ      -1.7364     ZZ     -24.4138

 Total job time:  2176.06s(wall), 3567.65s(cpu)
        *  Thank you very much for using Q-Chem.  Have a nice day.  *
