 Q-Chem 4.3, Q-Chem, Inc., Pleasanton, CA (2015)
 Q-Chem 4.3.0 for Intel X86 Linux

User input:
--------------------------------------------------------------
$comment
XAS calculation for the 2b valence excited for water using cvs-adc(2)-x + 6-311+G* basis set
job 1 - determination of HF orbitals
$end

$molecule
0 1
6  -0.554065  2.759286  -0.162659
9  0.643647  2.589539  -0.084994
9  -1.060044  3.608663  0.679581
9  -1.448269  0.077143  0.836112
9  -1.055911  2.878093  -1.320059
$end

$rem
jobtype      sp
sym_ignore true
exchange     hf
basis        6-31G*
unrestricted true
$end

--------------------------------------------------------------

   14    -435.3435865297      3.01E-06 Convergence criterion met
 Total energy in the final basis set = -435.3435865297
 Total job time:  3.57s(wall), 15.79s(cpu)
        *  Thank you very much for using Q-Chem.  Have a nice day.  *
 Q-Chem 4.3, Q-Chem, Inc., Pleasanton, CA (2015)
 Q-Chem 4.3.0 for Intel X86 Linux

User input:
--------------------------------------------------------------

$comment
job3 - cvs-adc(2) calculation
$end

$molecule
read
$end

$rem
mem_total 3000
mem_static 1500
sym_ignore true
scf_guess read
method cvs-adc(2)
basis 6-31G*
ee_singlets 20
cc_rest_occ 5                  !only excitations from the lowest N orbitals
unrestricted  true
max_scf_cycles 200
$end
--------------------------------------------------------------

             Standard Nuclear Orientation (Angstroms)
    I     Atom           X                Y                Z
 ----------------------------------------------------------------
    1      C      -0.5540650000     2.7592860000    -0.1626590000
    2      F       0.6436470000     2.5895390000    -0.0849940000
    3      F      -1.0600440000     3.6086630000     0.6795810000
    4      F      -1.4482690000     0.0771430000     0.8361120000
    5      F      -1.0559110000     2.8780930000    -1.3200590000
 ----------------------------------------------------------------

    8    -435.3435866361      9.43E-09 Convergence criterion met
 Total energy in the final basis set = -435.3435866361
  Term symbol:  2 (-) A                                     R^2 =  6.25081e-14
  Excitation energy:                                             294.229523 eV
  Term symbol:  3 (-) A                                     R^2 =  5.15475e-14
  Excitation energy:                                             296.072286 eV
  Term symbol:  4 (-) A                                     R^2 =  6.91329e-14
  Excitation energy:                                             302.438592 eV
  Term symbol:  5 (-) A                                     R^2 =  1.72294e-13
  Excitation energy:                                             303.157720 eV
  Term symbol:  6 (-) A                                     R^2 =  2.75135e-13
  Excitation energy:                                             304.517307 eV
  Term symbol:  7 (-) A                                     R^2 =  8.06551e-14
  Excitation energy:                                             304.768429 eV
  Term symbol:  8 (-) A                                     R^2 =  1.79550e-13
  Excitation energy:                                             305.137850 eV
  Term symbol:  9 (-) A                                     R^2 =  1.19765e-13
  Excitation energy:                                             306.674444 eV
  Term symbol:  10 (-) A                                    R^2 =  1.39917e-13
  Excitation energy:                                             313.174873 eV
  Excited state 10 (A)                                             [converged]
  Term symbol:  11 (-) A                                    R^2 =  3.87622e-13
  Excitation energy:                                             313.921359 eV
  Excited state 11 (A)                                             [converged]
  Term symbol:  12 (-) A                                    R^2 =  1.47439e-13
  Excitation energy:                                             314.007089 eV
  Excited state 12 (A)                                             [converged]
  Term symbol:  13 (-) A                                    R^2 =  1.49878e-13
  Excitation energy:                                             314.107478 eV
  Excited state 13 (A)                                             [converged]
  Term symbol:  14 (-) A                                    R^2 =  3.22439e-13
  Excitation energy:                                             314.214820 eV
  Excited state 14 (A)                                             [converged]
  Term symbol:  15 (-) A                                    R^2 =  4.44247e-13
  Excitation energy:                                             314.387145 eV
  Excited state 15 (A)                                             [converged]
  Term symbol:  16 (-) A                                    R^2 =  2.66638e-13
  Excitation energy:                                             314.648211 eV
  Excited state 16 (A)                                             [converged]
  Term symbol:  17 (-) A                                    R^2 =  7.11189e-13
  Excitation energy:                                             315.449096 eV
  Excited state 17 (A)                                             [converged]
  Term symbol:  18 (-) A                                    R^2 =  8.27508e-12
  Excitation energy:                                             325.620496 eV
  Excited state 18 (A)                                             [converged]
  Term symbol:  19 (-) A                                    R^2 =  7.36586e-12
  Excitation energy:                                             325.689713 eV
  Excited state 19 (A)                                         [not converged]
  Term symbol:  20 (-) A                                    R^2 =  7.85270e-06
  Excitation energy:                                             331.185526 eV
  Excited state 20 (A)                                         [not converged]
  Term symbol:  21 (-) A                                    R^2 =  1.68275e-05
  Excitation energy:                                             331.338507 eV

                    Orbital Energies (a.u.)
 --------------------------------------------------------------

 Alpha MOs
 -- Occupied --
-26.544 -26.522 -26.508 -26.069 -11.738  -1.940  -1.841  -1.802
 -1.294  -1.114  -1.016  -1.007  -0.958  -0.860  -0.850  -0.833
 -0.815  -0.801  -0.411  -0.411  -0.345

 Beta MOs
 -- Occupied --
-26.544 -26.522 -26.508 -26.069 -11.738  -1.940  -1.841  -1.802
 -1.294  -1.114  -1.016  -1.007  -0.958  -0.860  -0.850  -0.833
 -0.815  -0.801  -0.411  -0.411  -0.345

          Ground-State Mulliken Net Atomic Charges

     Atom                 Charge (a.u.)    Spin (a.u.)
  --------------------------------------------------------
      1 C                     1.148416       0.000000
      2 F                    -0.104544       0.000000
      3 F                    -0.206274       0.000000
      4 F                    -0.663365       0.000000
      5 F                    -0.174232       0.000000
  --------------------------------------------------------
  Sum of atomic charges =     0.000000

                    Cartesian Multipole Moments
 -----------------------------------------------------------------
    Charge (ESU x 10^10)
                 0.0000
    Dipole Moment (Debye)
         X       3.0789      Y       8.1193      Z      -3.1686
       Tot       9.2435
    Quadrupole Moments (Debye-Ang)
        XX     -28.9077     XY      -3.1663     YY      -0.3148
        XZ       3.9920     YZ      -2.0788     ZZ     -25.4594

 Total job time:  1993.98s(wall), 3265.91s(cpu)
        *  Thank you very much for using Q-Chem.  Have a nice day.  *
