 Q-Chem 4.3, Q-Chem, Inc., Pleasanton, CA (2015)
 Q-Chem 4.3.0 for Intel X86 Linux

User input:
--------------------------------------------------------------
$comment
XAS calculation for the 2b valence excited for water using cvs-adc(2)-x + 6-311+G* basis set
job 1 - determination of HF orbitals
$end

$molecule
0 1
6  -0.532853  2.503425  -0.131205
9  0.589857  2.364411  -0.008888
9  -1.154796  3.242319  0.810721
9  -1.207005  1.16078  0.478351
9  -1.129633  2.543077  -1.197796
$end

$rem
jobtype      sp
sym_ignore true
exchange     hf
basis        6-31G*
unrestricted true
$end

--------------------------------------------------------------

    8    -435.5365473350      7.81E-06 Convergence criterion met
 Total energy in the final basis set = -435.5365473350
 Total job time:  5.90s(wall), 10.32s(cpu)
        *  Thank you very much for using Q-Chem.  Have a nice day.  *
 Q-Chem 4.3, Q-Chem, Inc., Pleasanton, CA (2015)
 Q-Chem 4.3.0 for Intel X86 Linux

User input:
--------------------------------------------------------------

$comment
job3 - cvs-adc(2) calculation
$end

$molecule
read
$end

$rem
mem_total 3000
mem_static 1500
sym_ignore true
scf_guess read
method cvs-adc(2)
basis 6-31G*
ee_singlets 20
cc_rest_occ 5                  !only excitations from the lowest N orbitals
unrestricted  true
max_scf_cycles 200
$end
--------------------------------------------------------------

             Standard Nuclear Orientation (Angstroms)
    I     Atom           X                Y                Z
 ----------------------------------------------------------------
    1      C      -0.5328530000     2.5034250000    -0.1312050000
    2      F       0.5898570000     2.3644110000    -0.0088880000
    3      F      -1.1547960000     3.2423190000     0.8107210000
    4      F      -1.2070050000     1.1607800000     0.4783510000
    5      F      -1.1296330000     2.5430770000    -1.1977960000
 ----------------------------------------------------------------

    6    -435.5365474337      7.69E-09 Convergence criterion met
 Total energy in the final basis set = -435.5365474337
  Term symbol:  2 (-) A                                     R^2 =  4.39638e-13
  Excitation energy:                                             297.237040 eV
  Term symbol:  3 (-) A                                     R^2 =  1.19393e-13
  Excitation energy:                                             299.248165 eV
  Term symbol:  4 (-) A                                     R^2 =  1.88548e-13
  Excitation energy:                                             301.727545 eV
  Term symbol:  5 (-) A                                     R^2 =  9.77992e-14
  Excitation energy:                                             304.121451 eV
  Term symbol:  6 (-) A                                     R^2 =  3.22293e-13
  Excitation energy:                                             304.198745 eV
  Term symbol:  7 (-) A                                     R^2 =  1.34016e-13
  Excitation energy:                                             306.062930 eV
  Term symbol:  8 (-) A                                     R^2 =  1.47615e-13
  Excitation energy:                                             307.398709 eV
  Term symbol:  9 (-) A                                     R^2 =  1.28655e-13
  Excitation energy:                                             309.194082 eV
  Term symbol:  10 (-) A                                    R^2 =  3.24175e-13
  Excitation energy:                                             312.077874 eV
  Excited state 10 (A)                                             [converged]
  Term symbol:  11 (-) A                                    R^2 =  1.59333e-13
  Excitation energy:                                             313.432335 eV
  Excited state 11 (A)                                             [converged]
  Term symbol:  12 (-) A                                    R^2 =  1.08300e-13
  Excitation energy:                                             313.538534 eV
  Excited state 12 (A)                                             [converged]
  Term symbol:  13 (-) A                                    R^2 =  7.29438e-14
  Excitation energy:                                             313.986845 eV
  Excited state 13 (A)                                             [converged]
  Term symbol:  14 (-) A                                    R^2 =  1.83007e-13
  Excitation energy:                                             314.389760 eV
  Excited state 14 (A)                                             [converged]
  Term symbol:  15 (-) A                                    R^2 =  1.00116e-13
  Excitation energy:                                             315.105258 eV
  Excited state 15 (A)                                             [converged]
  Term symbol:  16 (-) A                                    R^2 =  7.10010e-13
  Excitation energy:                                             316.922356 eV
  Excited state 16 (A)                                             [converged]
  Term symbol:  17 (-) A                                    R^2 =  5.29049e-13
  Excitation energy:                                             317.280375 eV
  Excited state 17 (A)                                             [converged]
  Term symbol:  18 (-) A                                    R^2 =  1.44520e-08
  Excitation energy:                                             329.627358 eV
  Excited state 18 (A)                                             [converged]
  Term symbol:  19 (-) A                                    R^2 =  6.16817e-08
  Excitation energy:                                             329.825962 eV
  Excited state 19 (A)                                         [not converged]
  Term symbol:  20 (-) A                                    R^2 =  1.25471e-05
  Excitation energy:                                             330.855667 eV
  Excited state 20 (A)                                         [not converged]
  Term symbol:  21 (-) A                                    R^2 =  8.14211e-06
  Excitation energy:                                             330.912026 eV

                    Orbital Energies (a.u.)
 --------------------------------------------------------------

 Alpha MOs
 -- Occupied --
-26.475 -26.428 -26.361 -26.225 -11.630  -1.911  -1.792  -1.671
 -1.490  -1.051  -0.963  -0.936  -0.914  -0.796  -0.779  -0.755
 -0.713  -0.690  -0.571  -0.566  -0.555

 Beta MOs
 -- Occupied --
-26.475 -26.428 -26.361 -26.225 -11.630  -1.911  -1.792  -1.671
 -1.490  -1.051  -0.963  -0.936  -0.914  -0.796  -0.779  -0.755
 -0.713  -0.690  -0.571  -0.566  -0.555

          Ground-State Mulliken Net Atomic Charges

     Atom                 Charge (a.u.)    Spin (a.u.)
  --------------------------------------------------------
      1 C                     1.210572       0.000000
      2 F                    -0.091885       0.000000
      3 F                    -0.350100       0.000000
      4 F                    -0.556801       0.000000
      5 F                    -0.211787       0.000000
  --------------------------------------------------------
  Sum of atomic charges =     0.000000

                    Cartesian Multipole Moments
 -----------------------------------------------------------------
    Charge (ESU x 10^10)
                 0.0000
    Dipole Moment (Debye)
         X       2.1860      Y       2.1084      Z      -1.7158
       Tot       3.4882
    Quadrupole Moments (Debye-Ang)
        XX     -26.7156     XY       3.0279     YY     -16.5604
        XZ       1.6572     YZ      -3.5952     ZZ     -24.5344

 Total job time:  2185.30s(wall), 3595.28s(cpu)
        *  Thank you very much for using Q-Chem.  Have a nice day.  *
