 Q-Chem 4.3, Q-Chem, Inc., Pleasanton, CA (2015)
 Q-Chem 4.3.0 for Intel X86 Linux

User input:
--------------------------------------------------------------
$comment
XAS calculation for the 2b valence excited for water using cvs-adc(2)-x + 6-311+G* basis set
job 1 - determination of HF orbitals
$end

$molecule
0 1
6  -0.558898  2.868926  -0.193836
9  0.697572  2.376644  -0.027934
9  -1.14328  3.140913  0.796452
9  -1.331648  1.051598  0.579313
9  -1.11523  2.525459  -1.222073
$end

$rem
jobtype      sp
sym_ignore true
exchange     hf
basis        6-31G*
unrestricted true
$end

--------------------------------------------------------------

   10    -435.3810129839      3.71E-06 Convergence criterion met
 Total energy in the final basis set = -435.3810129839
 Total job time:  2.75s(wall), 11.92s(cpu)
        *  Thank you very much for using Q-Chem.  Have a nice day.  *
 Q-Chem 4.3, Q-Chem, Inc., Pleasanton, CA (2015)
 Q-Chem 4.3.0 for Intel X86 Linux

User input:
--------------------------------------------------------------

$comment
job3 - cvs-adc(2) calculation
$end

$molecule
read
$end

$rem
mem_total 3000
mem_static 1500
sym_ignore true
scf_guess read
method cvs-adc(2)
basis 6-31G*
ee_singlets 20
cc_rest_occ 5                  !only excitations from the lowest N orbitals
unrestricted  true
max_scf_cycles 200
$end
--------------------------------------------------------------

             Standard Nuclear Orientation (Angstroms)
    I     Atom           X                Y                Z
 ----------------------------------------------------------------
    1      C      -0.5588980000     2.8689260000    -0.1938360000
    2      F       0.6975720000     2.3766440000    -0.0279340000
    3      F      -1.1432800000     3.1409130000     0.7964520000
    4      F      -1.3316480000     1.0515980000     0.5793130000
    5      F      -1.1152300000     2.5254590000    -1.2220730000
 ----------------------------------------------------------------

    7    -435.3810129394      4.15E-09 Convergence criterion met
 Total energy in the final basis set = -435.3810129394
  Term symbol:  2 (-) A                                     R^2 =  7.72958e-14
  Excitation energy:                                             293.760367 eV
  Term symbol:  3 (-) A                                     R^2 =  2.59803e-13
  Excitation energy:                                             295.574970 eV
  Term symbol:  4 (-) A                                     R^2 =  1.96593e-13
  Excitation energy:                                             301.470016 eV
  Term symbol:  5 (-) A                                     R^2 =  1.94715e-13
  Excitation energy:                                             303.706000 eV
  Term symbol:  6 (-) A                                     R^2 =  9.49022e-13
  Excitation energy:                                             304.666223 eV
  Term symbol:  7 (-) A                                     R^2 =  6.48604e-13
  Excitation energy:                                             306.533295 eV
  Term symbol:  8 (-) A                                     R^2 =  6.33921e-13
  Excitation energy:                                             306.583993 eV
  Term symbol:  9 (-) A                                     R^2 =  2.02017e-13
  Excitation energy:                                             308.442862 eV
  Term symbol:  10 (-) A                                    R^2 =  5.83047e-13
  Excitation energy:                                             312.152573 eV
  Excited state 10 (A)                                             [converged]
  Term symbol:  11 (-) A                                    R^2 =  5.44875e-13
  Excitation energy:                                             313.646111 eV
  Excited state 11 (A)                                             [converged]
  Term symbol:  12 (-) A                                    R^2 =  3.19415e-13
  Excitation energy:                                             314.321730 eV
  Excited state 12 (A)                                             [converged]
  Term symbol:  13 (-) A                                    R^2 =  4.48002e-13
  Excitation energy:                                             314.494388 eV
  Excited state 13 (A)                                             [converged]
  Term symbol:  14 (-) A                                    R^2 =  8.78501e-13
  Excitation energy:                                             314.745891 eV
  Excited state 14 (A)                                             [converged]
  Term symbol:  15 (-) A                                    R^2 =  3.24435e-13
  Excitation energy:                                             315.131757 eV
  Excited state 15 (A)                                             [converged]
  Term symbol:  16 (-) A                                    R^2 =  1.25933e-10
  Excitation energy:                                             320.196240 eV
  Excited state 16 (A)                                             [converged]
  Term symbol:  17 (-) A                                    R^2 =  2.58388e-12
  Excitation energy:                                             320.753748 eV
  Excited state 17 (A)                                             [converged]
  Term symbol:  18 (-) A                                    R^2 =  1.69256e-08
  Excitation energy:                                             331.464431 eV
  Excited state 18 (A)                                             [converged]
  Term symbol:  19 (-) A                                    R^2 =  2.71502e-07
  Excitation energy:                                             331.655878 eV
  Excited state 19 (A)                                         [not converged]
  Term symbol:  20 (-) A                                    R^2 =  1.77157e-06
  Excitation energy:                                             331.868465 eV
  Excited state 20 (A)                                         [not converged]
  Term symbol:  21 (-) A                                    R^2 =  2.27148e-06
  Excitation energy:                                             331.991879 eV

                    Orbital Energies (a.u.)
 --------------------------------------------------------------

 Alpha MOs
 -- Occupied --
-26.515 -26.511 -26.460 -26.015 -11.717  -1.924  -1.842  -1.741
 -1.286  -1.087  -1.002  -0.979  -0.932  -0.833  -0.818  -0.803
 -0.772  -0.765  -0.386  -0.384  -0.380

 Beta MOs
 -- Occupied --
-26.515 -26.511 -26.460 -26.015 -11.717  -1.924  -1.842  -1.741
 -1.286  -1.087  -1.002  -0.979  -0.932  -0.833  -0.818  -0.803
 -0.772  -0.765  -0.386  -0.384  -0.380

          Ground-State Mulliken Net Atomic Charges

     Atom                 Charge (a.u.)    Spin (a.u.)
  --------------------------------------------------------
      1 C                     1.215042       0.000000
      2 F                    -0.254812       0.000000
      3 F                    -0.035056       0.000000
      4 F                    -0.815794       0.000000
      5 F                    -0.109381       0.000000
  --------------------------------------------------------
  Sum of atomic charges =     0.000000

                    Cartesian Multipole Moments
 -----------------------------------------------------------------
    Charge (ESU x 10^10)
                 0.0000
    Dipole Moment (Debye)
         X       2.2264      Y       7.2880      Z      -2.8455
       Tot       8.1344
    Quadrupole Moments (Debye-Ang)
        XX     -28.1742     XY      -2.6057     YY       6.8976
        XZ       3.1568     YZ      -4.4261     ZZ     -23.7592

 Total job time:  1928.75s(wall), 3214.92s(cpu)
        *  Thank you very much for using Q-Chem.  Have a nice day.  *
