 Q-Chem 4.3, Q-Chem, Inc., Pleasanton, CA (2015)
 Q-Chem 4.3.0 for Intel X86 Linux

User input:
--------------------------------------------------------------
$comment
XAS calculation for the 2b valence excited for water using cvs-adc(2)-x + 6-311+G* basis set
job 1 - determination of HF orbitals
$end

$molecule
0 1
6  -0.528656  2.815506  -0.222981
9  0.631514  2.490827  -0.064681
9  -1.079605  3.39348  0.719882
9  -1.398521  0.511168  0.722395
9  -1.056566  2.707758  -1.239552
$end

$rem
jobtype      sp
sym_ignore true
exchange     hf
basis        6-31G*
unrestricted true
$end

--------------------------------------------------------------

    9    -435.3928285925      5.93E-06 Convergence criterion met
 Total energy in the final basis set = -435.3928285925
 Total job time:  2.52s(wall), 9.93s(cpu)
        *  Thank you very much for using Q-Chem.  Have a nice day.  *
 Q-Chem 4.3, Q-Chem, Inc., Pleasanton, CA (2015)
 Q-Chem 4.3.0 for Intel X86 Linux

User input:
--------------------------------------------------------------

$comment
job3 - cvs-adc(2) calculation
$end

$molecule
read
$end

$rem
mem_total 3000
mem_static 1500
sym_ignore true
scf_guess read
method cvs-adc(2)
basis 6-31G*
ee_singlets 20
cc_rest_occ 5                  !only excitations from the lowest N orbitals
unrestricted  true
max_scf_cycles 200
$end
--------------------------------------------------------------

             Standard Nuclear Orientation (Angstroms)
    I     Atom           X                Y                Z
 ----------------------------------------------------------------
    1      C      -0.5286560000     2.8155060000    -0.2229810000
    2      F       0.6315140000     2.4908270000    -0.0646810000
    3      F      -1.0796050000     3.3934800000     0.7198820000
    4      F      -1.3985210000     0.5111680000     0.7223950000
    5      F      -1.0565660000     2.7077580000    -1.2395520000
 ----------------------------------------------------------------

    6    -435.3928286529      9.63E-09 Convergence criterion met
 Total energy in the final basis set = -435.3928286529
  Term symbol:  2 (-) A                                     R^2 =  3.83797e-14
  Excitation energy:                                             295.057016 eV
  Term symbol:  3 (-) A                                     R^2 =  8.18769e-14
  Excitation energy:                                             297.024164 eV
  Term symbol:  4 (-) A                                     R^2 =  8.34168e-14
  Excitation energy:                                             303.492397 eV
  Term symbol:  5 (-) A                                     R^2 =  3.44664e-14
  Excitation energy:                                             305.089714 eV
  Term symbol:  6 (-) A                                     R^2 =  1.15182e-13
  Excitation energy:                                             305.367154 eV
  Term symbol:  7 (-) A                                     R^2 =  4.42070e-14
  Excitation energy:                                             307.535849 eV
  Term symbol:  8 (-) A                                     R^2 =  5.17343e-14
  Excitation energy:                                             307.586568 eV
  Term symbol:  9 (-) A                                     R^2 =  3.34199e-14
  Excitation energy:                                             309.573773 eV
  Term symbol:  10 (-) A                                    R^2 =  6.80996e-14
  Excitation energy:                                             312.744743 eV
  Excited state 10 (A)                                             [converged]
  Term symbol:  11 (-) A                                    R^2 =  6.05039e-14
  Excitation energy:                                             314.211896 eV
  Excited state 11 (A)                                             [converged]
  Term symbol:  12 (-) A                                    R^2 =  4.59704e-14
  Excitation energy:                                             314.760037 eV
  Excited state 12 (A)                                             [converged]
  Term symbol:  13 (-) A                                    R^2 =  4.21381e-14
  Excitation energy:                                             315.024549 eV
  Excited state 13 (A)                                             [converged]
  Term symbol:  14 (-) A                                    R^2 =  6.12794e-14
  Excitation energy:                                             315.084287 eV
  Excited state 14 (A)                                             [converged]
  Term symbol:  15 (-) A                                    R^2 =  1.16315e-13
  Excitation energy:                                             315.527468 eV
  Excited state 15 (A)                                             [converged]
  Term symbol:  16 (-) A                                    R^2 =  5.54395e-13
  Excitation energy:                                             317.147997 eV
  Excited state 16 (A)                                             [converged]
  Term symbol:  17 (-) A                                    R^2 =  9.66406e-13
  Excitation energy:                                             318.150644 eV
  Excited state 17 (A)                                             [converged]
  Term symbol:  18 (-) A                                    R^2 =  2.50154e-07
  Excitation energy:                                             331.184825 eV
  Excited state 18 (A)                                         [not converged]
  Term symbol:  19 (-) A                                    R^2 =  9.88358e-06
  Excitation energy:                                             331.191755 eV
  Excited state 19 (A)                                             [converged]
  Term symbol:  20 (-) A                                    R^2 =  4.27686e-09
  Excitation energy:                                             331.262809 eV
  Excited state 20 (A)                                             [converged]
  Term symbol:  21 (-) A                                    R^2 =  4.06424e-08
  Excitation energy:                                             331.450055 eV

                    Orbital Energies (a.u.)
 --------------------------------------------------------------

 Alpha MOs
 -- Occupied --
-26.567 -26.532 -26.521 -25.995 -11.740  -1.997  -1.887  -1.844
 -1.243  -1.134  -1.056  -1.050  -1.000  -0.879  -0.875  -0.859
 -0.834  -0.817  -0.354  -0.354  -0.337

 Beta MOs
 -- Occupied --
-26.567 -26.532 -26.521 -25.995 -11.740  -1.997  -1.887  -1.844
 -1.243  -1.134  -1.056  -1.050  -1.000  -0.879  -0.875  -0.859
 -0.834  -0.817  -0.354  -0.354  -0.337

          Ground-State Mulliken Net Atomic Charges

     Atom                 Charge (a.u.)    Spin (a.u.)
  --------------------------------------------------------
      1 C                     1.092709       0.000000
      2 F                    -0.116227       0.000000
      3 F                    -0.140058       0.000000
      4 F                    -0.809595       0.000000
      5 F                    -0.026829       0.000000
  --------------------------------------------------------
  Sum of atomic charges =     0.000000

                    Cartesian Multipole Moments
 -----------------------------------------------------------------
    Charge (ESU x 10^10)
                 0.0000
    Dipole Moment (Debye)
         X       3.2669      Y       8.8629      Z      -4.0234
       Tot      10.2670
    Quadrupole Moments (Debye-Ang)
        XX     -29.0588     XY      -2.9104     YY       7.2987
        XZ       4.6374     YZ      -5.2172     ZZ     -24.1482

 Total job time:  2005.51s(wall), 3262.03s(cpu)
        *  Thank you very much for using Q-Chem.  Have a nice day.  *
