 Q-Chem 4.3, Q-Chem, Inc., Pleasanton, CA (2015)
 Q-Chem 4.3.0 for Intel X86 Linux

User input:
--------------------------------------------------------------
$comment
XAS calculation for the 2b valence excited for water using cvs-adc(2)-x + 6-311+G* basis set
job 1 - determination of HF orbitals
$end

$molecule
0 1
6  -0.343423  2.957153  -0.300897
9  0.801866  2.766353  -0.216609
9  -1.015875  3.300549  0.702054
9  -1.866704  0.10005  1.073235
9  -0.923839  2.833085  -1.370311
$end

$rem
jobtype      sp
sym_ignore true
exchange     hf
basis        6-31G*
unrestricted true
$end

--------------------------------------------------------------

   12    -435.3136447970      5.33E-06 Convergence criterion met
 Total energy in the final basis set = -435.3136447970
 Total job time:  3.17s(wall), 14.14s(cpu)
        *  Thank you very much for using Q-Chem.  Have a nice day.  *
 Q-Chem 4.3, Q-Chem, Inc., Pleasanton, CA (2015)
 Q-Chem 4.3.0 for Intel X86 Linux

User input:
--------------------------------------------------------------

$comment
job3 - cvs-adc(2) calculation
$end

$molecule
read
$end

$rem
mem_total 3000
mem_static 1500
sym_ignore true
scf_guess read
method cvs-adc(2)
basis 6-31G*
ee_singlets 20
cc_rest_occ 5                  !only excitations from the lowest N orbitals
unrestricted  true
max_scf_cycles 200
$end
--------------------------------------------------------------

             Standard Nuclear Orientation (Angstroms)
    I     Atom           X                Y                Z
 ----------------------------------------------------------------
    1      C      -0.3434230000     2.9571530000    -0.3008970000
    2      F       0.8018660000     2.7663530000    -0.2166090000
    3      F      -1.0158750000     3.3005490000     0.7020540000
    4      F      -1.8667040000     0.1000500000     1.0732350000
    5      F      -0.9238390000     2.8330850000    -1.3703110000
 ----------------------------------------------------------------

    7    -435.3136448729      5.27E-09 Convergence criterion met
 Total energy in the final basis set = -435.3136448729
  Term symbol:  2 (-) A                                     R^2 =  2.35380e-08
  Excitation energy:                                             294.665642 eV
  Term symbol:  3 (-) A                                     R^2 =  7.57070e-08
  Excitation energy:                                             296.580697 eV
  Term symbol:  4 (-) A                                     R^2 =  4.40459e-08
  Excitation energy:                                             302.769130 eV
  Term symbol:  5 (-) A                                     R^2 =  9.24142e-09
  Excitation energy:                                             304.381065 eV
  Term symbol:  6 (-) A                                     R^2 =  9.51707e-09
  Excitation energy:                                             305.098188 eV
  Term symbol:  7 (-) A                                     R^2 =  2.64946e-08
  Excitation energy:                                             306.927053 eV
  Term symbol:  8 (-) A                                     R^2 =  1.31511e-09
  Excitation energy:                                             307.279306 eV
  Term symbol:  9 (-) A                                     R^2 =  1.58563e-08
  Excitation energy:                                             308.968379 eV
  Term symbol:  10 (-) A                                    R^2 =  1.80364e-08
  Excitation energy:                                             313.101258 eV
  Excited state 10 (A)                                             [converged]
  Term symbol:  11 (-) A                                    R^2 =  1.20597e-07
  Excitation energy:                                             314.275997 eV
  Excited state 11 (A)                                             [converged]
  Term symbol:  12 (-) A                                    R^2 =  7.98979e-08
  Excitation energy:                                             314.499367 eV
  Excited state 12 (A)                                             [converged]
  Term symbol:  13 (-) A                                    R^2 =  6.36877e-09
  Excitation energy:                                             314.942049 eV
  Excited state 13 (A)                                             [converged]
  Term symbol:  14 (-) A                                    R^2 =  2.63603e-09
  Excitation energy:                                             315.112045 eV
  Excited state 14 (A)                                             [converged]
  Term symbol:  15 (-) A                                    R^2 =  1.78019e-08
  Excitation energy:                                             315.388228 eV
  Excited state 15 (A)                                             [converged]
  Term symbol:  16 (-) A                                    R^2 =  1.44216e-08
  Excitation energy:                                             315.555255 eV
  Excited state 16 (A)                                             [converged]
  Term symbol:  17 (-) A                                    R^2 =  6.15840e-08
  Excitation energy:                                             316.268609 eV
  Excited state 17 (A)                                         [not converged]
  Term symbol:  18 (-) A                                    R^2 =  3.84477e-03
  Excitation energy:                                             326.072778 eV
  Excited state 18 (A)                                         [not converged]
  Term symbol:  19 (-) A                                    R^2 =  1.04843e-01
  Excitation energy:                                             326.175068 eV
  Excited state 19 (A)                                         [not converged]
  Term symbol:  20 (-) A                                    R^2 =  2.66534e-01
  Excitation energy:                                             326.888522 eV
  Excited state 20 (A)                                         [not converged]
  Term symbol:  21 (-) A                                    R^2 =  3.75366e-03
  Excitation energy:                                             330.883360 eV

                    Orbital Energies (a.u.)
 --------------------------------------------------------------

 Alpha MOs
 -- Occupied --
-26.626 -26.593 -26.571 -25.882 -11.799  -2.043  -1.935  -1.886
 -1.185  -1.144  -1.103  -1.093  -1.049  -0.927  -0.921  -0.912
 -0.878  -0.867  -0.256  -0.256  -0.247

 Beta MOs
 -- Occupied --
-26.626 -26.593 -26.571 -25.882 -11.799  -2.043  -1.935  -1.886
 -1.185  -1.144  -1.103  -1.093  -1.049  -0.927  -0.921  -0.912
 -0.878  -0.867  -0.256  -0.256  -0.247

          Ground-State Mulliken Net Atomic Charges

     Atom                 Charge (a.u.)    Spin (a.u.)
  --------------------------------------------------------
      1 C                     1.202656       0.000000
      2 F                    -0.032415       0.000000
      3 F                    -0.120537       0.000000
      4 F                    -0.945861       0.000000
      5 F                    -0.103843       0.000000
  --------------------------------------------------------
  Sum of atomic charges =     0.000000

                    Cartesian Multipole Moments
 -----------------------------------------------------------------
    Charge (ESU x 10^10)
                 0.0000
    Dipole Moment (Debye)
         X       7.0731      Y      12.6763      Z      -6.1548
       Tot      15.7670
    Quadrupole Moments (Debye-Ang)
        XX     -37.3857     XY      -2.8144     YY      16.4953
        XZ       9.3300     YZ      -4.6032     ZZ     -27.1704

 Total job time:  2102.42s(wall), 3453.15s(cpu)
        *  Thank you very much for using Q-Chem.  Have a nice day.  *
