 Q-Chem 4.3, Q-Chem, Inc., Pleasanton, CA (2015)
 Q-Chem 4.3.0 for Intel X86 Linux

User input:
--------------------------------------------------------------
$comment
XAS calculation for the 2b valence excited for water using cvs-adc(2)-x + 6-311+G* basis set
job 1 - determination of HF orbitals
$end

$molecule
0 1
6  -0.4515  2.945264  -0.235183
9  0.494361  2.256243  0.053685
9  -1.158485  3.395183  0.800628
9  -1.118635  0.804235  0.501941
9  -1.176168  2.568634  -1.203543
$end

$rem
jobtype      sp
sym_ignore true
exchange     hf
basis        6-31G*
unrestricted true
$end

--------------------------------------------------------------

   12    -435.3395430014      6.80E-06 Convergence criterion met
 Total energy in the final basis set = -435.3395430014
 Total job time:  3.23s(wall), 13.15s(cpu)
        *  Thank you very much for using Q-Chem.  Have a nice day.  *
 Q-Chem 4.3, Q-Chem, Inc., Pleasanton, CA (2015)
 Q-Chem 4.3.0 for Intel X86 Linux

User input:
--------------------------------------------------------------

$comment
job3 - cvs-adc(2) calculation
$end

$molecule
read
$end

$rem
mem_total 3000
mem_static 1500
sym_ignore true
scf_guess read
method cvs-adc(2)
basis 6-31G*
ee_singlets 20
cc_rest_occ 5                  !only excitations from the lowest N orbitals
unrestricted  true
max_scf_cycles 200
$end
--------------------------------------------------------------

             Standard Nuclear Orientation (Angstroms)
    I     Atom           X                Y                Z
 ----------------------------------------------------------------
    1      C      -0.4515000000     2.9452640000    -0.2351830000
    2      F       0.4943610000     2.2562430000     0.0536850000
    3      F      -1.1584850000     3.3951830000     0.8006280000
    4      F      -1.1186350000     0.8042350000     0.5019410000
    5      F      -1.1761680000     2.5686340000    -1.2035430000
 ----------------------------------------------------------------

   10    -435.3395435842      9.12E-09 Convergence criterion met
 Total energy in the final basis set = -435.3395435842
  Term symbol:  2 (-) A                                     R^2 =  1.07586e-04
  Excitation energy:                                             292.967254 eV
  Term symbol:  3 (-) A                                     R^2 =  4.69970e-05
  Excitation energy:                                             294.728615 eV
  Term symbol:  4 (-) A                                     R^2 =  1.44832e-05
  Excitation energy:                                             301.899391 eV
  Term symbol:  5 (-) A                                     R^2 =  1.72109e-05
  Excitation energy:                                             303.515379 eV
  Term symbol:  6 (-) A                                     R^2 =  2.40786e-06
  Excitation energy:                                             304.018268 eV
  Term symbol:  7 (-) A                                     R^2 =  9.28295e-06
  Excitation energy:                                             305.237309 eV
  Term symbol:  8 (-) A                                     R^2 =  9.73311e-06
  Excitation energy:                                             305.600854 eV
  Term symbol:  9 (-) A                                     R^2 =  1.01088e-05
  Excitation energy:                                             307.096892 eV
  Term symbol:  10 (-) A                                    R^2 =  7.02590e-05
  Excitation energy:                                             312.146513 eV
  Excited state 10 (A)                                         [not converged]
  Term symbol:  11 (-) A                                    R^2 =  6.63909e-05
  Excitation energy:                                             313.584957 eV
  Excited state 11 (A)                                         [not converged]
  Term symbol:  12 (-) A                                    R^2 =  7.25880e-06
  Excitation energy:                                             313.899606 eV
  Excited state 12 (A)                                         [not converged]
  Term symbol:  13 (-) A                                    R^2 =  6.56463e-06
  Excitation energy:                                             314.015608 eV
  Excited state 13 (A)                                         [not converged]
  Term symbol:  14 (-) A                                    R^2 =  1.17410e-06
  Excitation energy:                                             314.377655 eV
  Excited state 14 (A)                                         [not converged]
  Term symbol:  15 (-) A                                    R^2 =  3.26436e-06
  Excitation energy:                                             314.653754 eV
  Excited state 15 (A)                                         [not converged]
  Term symbol:  16 (-) A                                    R^2 =  2.84665e-05
  Excitation energy:                                             319.554959 eV
  Excited state 16 (A)                                         [not converged]
  Term symbol:  17 (-) A                                    R^2 =  6.28982e-06
  Excitation energy:                                             320.103283 eV
  Excited state 17 (A)                                         [not converged]
  Term symbol:  18 (-) A                                    R^2 =  1.25970e-02
  Excitation energy:                                             323.892026 eV
  Excited state 18 (A)                                         [not converged]
  Term symbol:  19 (-) A                                    R^2 =  7.33316e-03
  Excitation energy:                                             323.897098 eV
  Excited state 19 (A)                                         [not converged]
  Term symbol:  20 (-) A                                    R^2 =  1.38533e-03
  Excitation energy:                                             324.134972 eV
  Excited state 20 (A)                                         [not converged]
  Term symbol:  21 (-) A                                    R^2 =  4.87393e-04
  Excitation energy:                                             324.152420 eV

                    Orbital Energies (a.u.)
 --------------------------------------------------------------

 Alpha MOs
 -- Occupied --
-26.537 -26.514 -26.493 -25.979 -11.735  -1.922  -1.825  -1.774
 -1.245  -1.097  -0.997  -0.988  -0.933  -0.837  -0.824  -0.810
 -0.792  -0.785  -0.350  -0.350  -0.340

 Beta MOs
 -- Occupied --
-26.537 -26.514 -26.493 -25.979 -11.735  -1.922  -1.825  -1.774
 -1.245  -1.097  -0.997  -0.988  -0.933  -0.837  -0.824  -0.810
 -0.792  -0.785  -0.350  -0.350  -0.340

          Ground-State Mulliken Net Atomic Charges

     Atom                 Charge (a.u.)    Spin (a.u.)
  --------------------------------------------------------
      1 C                     1.233096       0.000000
      2 F                    -0.030505       0.000000
      3 F                    -0.207387       0.000000
      4 F                    -0.858868       0.000000
      5 F                    -0.136336       0.000000
  --------------------------------------------------------
  Sum of atomic charges =     0.000000

                    Cartesian Multipole Moments
 -----------------------------------------------------------------
    Charge (ESU x 10^10)
                 0.0000
    Dipole Moment (Debye)
         X       3.2206      Y       8.4318      Z      -3.1907
       Tot       9.5733
    Quadrupole Moments (Debye-Ang)
        XX     -27.3587     XY       0.1245     YY       9.0315
        XZ       2.7538     YZ      -5.4793     ZZ     -23.7437

 Total job time:  2147.19s(wall), 3518.51s(cpu)
        *  Thank you very much for using Q-Chem.  Have a nice day.  *
