 Q-Chem 4.3, Q-Chem, Inc., Pleasanton, CA (2015)
 Q-Chem 4.3.0 for Intel X86 Linux

User input:
--------------------------------------------------------------
$comment
XAS calculation for the 2b valence excited for water using cvs-adc(2)-x + 6-311+G* basis set
job 1 - determination of HF orbitals
$end

$molecule
0 1
6  -0.702709  2.352116  -0.006978
9  0.592767  2.34757  0.001934
9  -1.130068  3.294623  0.783489
9  -1.126836  1.200165  0.419492
9  -1.128279  2.557187  -1.197226
$end

$rem
jobtype      sp
sym_ignore true
exchange     hf
basis        6-31G*
unrestricted true
$end

--------------------------------------------------------------

    7    -435.6446381899      8.43E-06 Convergence criterion met
 Total energy in the final basis set = -435.6446381899
 Total job time:  13.08s(wall), 10.00s(cpu)
        *  Thank you very much for using Q-Chem.  Have a nice day.  *
 Q-Chem 4.3, Q-Chem, Inc., Pleasanton, CA (2015)
 Q-Chem 4.3.0 for Intel X86 Linux

User input:
--------------------------------------------------------------

$comment
job3 - cvs-adc(2) calculation
$end

$molecule
read
$end

$rem
mem_total 3000
mem_static 1500
sym_ignore true
scf_guess read
method cvs-adc(2)
basis 6-31G*
ee_singlets 20
cc_rest_occ 5                  !only excitations from the lowest N orbitals
unrestricted  true
max_scf_cycles 200
$end
--------------------------------------------------------------

             Standard Nuclear Orientation (Angstroms)
    I     Atom           X                Y                Z
 ----------------------------------------------------------------
    1      C      -0.7027090000     2.3521160000    -0.0069780000
    2      F       0.5927670000     2.3475700000     0.0019340000
    3      F      -1.1300680000     3.2946230000     0.7834890000
    4      F      -1.1268360000     1.2001650000     0.4194920000
    5      F      -1.1282790000     2.5571870000    -1.1972260000
 ----------------------------------------------------------------

    5    -435.6446382492      8.23E-09 Convergence criterion met
 Total energy in the final basis set = -435.6446382492
  Term symbol:  2 (-) A                                     R^2 =  1.16013e-13
  Excitation energy:                                             301.631871 eV
  Term symbol:  3 (-) A                                     R^2 =  1.66945e-13
  Excitation energy:                                             301.643105 eV
  Term symbol:  4 (-) A                                     R^2 =  1.77883e-12
  Excitation energy:                                             302.020246 eV
  Term symbol:  5 (-) A                                     R^2 =  1.11393e-13
  Excitation energy:                                             303.789150 eV
  Term symbol:  6 (-) A                                     R^2 =  1.73915e-13
  Excitation energy:                                             303.804109 eV
  Term symbol:  7 (-) A                                     R^2 =  2.54519e-13
  Excitation energy:                                             304.184108 eV
  Term symbol:  8 (-) A                                     R^2 =  2.38651e-13
  Excitation energy:                                             304.234839 eV
  Term symbol:  9 (-) A                                     R^2 =  8.12067e-14
  Excitation energy:                                             306.839843 eV
  Term symbol:  10 (-) A                                    R^2 =  1.26814e-13
  Excitation energy:                                             313.129442 eV
  Excited state 10 (A)                                             [converged]
  Term symbol:  11 (-) A                                    R^2 =  1.57235e-13
  Excitation energy:                                             313.520964 eV
  Excited state 11 (A)                                             [converged]
  Term symbol:  12 (-) A                                    R^2 =  1.65487e-13
  Excitation energy:                                             313.551685 eV
  Excited state 12 (A)                                             [converged]
  Term symbol:  13 (-) A                                    R^2 =  2.40707e-13
  Excitation energy:                                             313.597466 eV
  Excited state 13 (A)                                             [converged]
  Term symbol:  14 (-) A                                    R^2 =  7.53705e-13
  Excitation energy:                                             313.896343 eV
  Excited state 14 (A)                                             [converged]
  Term symbol:  15 (-) A                                    R^2 =  2.08893e-13
  Excitation energy:                                             313.905643 eV
  Excited state 15 (A)                                             [converged]
  Term symbol:  16 (-) A                                    R^2 =  7.09301e-13
  Excitation energy:                                             313.923123 eV
  Excited state 16 (A)                                             [converged]
  Term symbol:  17 (-) A                                    R^2 =  3.13800e-13
  Excitation energy:                                             314.036095 eV
  Excited state 17 (A)                                             [converged]
  Term symbol:  18 (-) A                                    R^2 =  9.83258e-07
  Excitation energy:                                             330.190823 eV
  Excited state 18 (A)                                         [not converged]
  Term symbol:  19 (-) A                                    R^2 =  1.31241e-06
  Excitation energy:                                             330.210614 eV
  Excited state 19 (A)                                             [converged]
  Term symbol:  20 (-) A                                    R^2 =  2.05585e-07
  Excitation energy:                                             330.212484 eV
  Excited state 20 (A)                                         [not converged]
  Term symbol:  21 (-) A                                    R^2 =  1.57129e-06
  Excitation energy:                                             330.232616 eV

                    Orbital Energies (a.u.)
 --------------------------------------------------------------

 Alpha MOs
 -- Occupied --
-26.379 -26.372 -26.371 -26.371 -11.601  -1.819  -1.688  -1.678
 -1.677  -1.006  -0.894  -0.892  -0.892  -0.761  -0.760  -0.708
 -0.704  -0.704  -0.673  -0.673  -0.670

 Beta MOs
 -- Occupied --
-26.379 -26.372 -26.371 -26.371 -11.601  -1.819  -1.688  -1.678
 -1.677  -1.006  -0.894  -0.892  -0.892  -0.761  -0.760  -0.708
 -0.704  -0.704  -0.673  -0.673  -0.670

          Ground-State Mulliken Net Atomic Charges

     Atom                 Charge (a.u.)    Spin (a.u.)
  --------------------------------------------------------
      1 C                     1.296829       0.000000
      2 F                    -0.326075       0.000000
      3 F                    -0.331687       0.000000
      4 F                    -0.329476       0.000000
      5 F                    -0.309592       0.000000
  --------------------------------------------------------
  Sum of atomic charges =     0.000000

                    Cartesian Multipole Moments
 -----------------------------------------------------------------
    Charge (ESU x 10^10)
                 0.0000
    Dipole Moment (Debye)
         X      -0.0363      Y       0.0187      Z      -0.1139
       Tot       0.1210
    Quadrupole Moments (Debye-Ang)
        XX     -24.8537     XY      -0.0970     YY     -24.8663
        XZ       0.1149     YZ      -0.2941     ZZ     -24.8345

 Total job time:  1891.32s(wall), 3109.82s(cpu)
        *  Thank you very much for using Q-Chem.  Have a nice day.  *
