 Q-Chem 4.3, Q-Chem, Inc., Pleasanton, CA (2015)
 Q-Chem 4.3.0 for Intel X86 Linux

User input:
--------------------------------------------------------------
$comment
XAS calculation for the 2b valence excited for water using cvs-adc(2)-x + 6-311+G* basis set
job 1 - determination of HF orbitals
$end

$molecule
0 1
6  -0.49758  2.853403  -0.210121
9  0.693917  2.633551  -0.12046
9  -1.029854  3.520391  0.667194
9  -1.575914  0.062048  0.913926
9  -1.01003  2.865062  -1.327452
$end

$rem
jobtype      sp
sym_ignore true
exchange     hf
basis        6-31G*
unrestricted true
$end

--------------------------------------------------------------

   12    -435.3411797061      5.70E-06 Convergence criterion met
 Total energy in the final basis set = -435.3411797061
 Total job time:  55.08s(wall), 14.90s(cpu)
        *  Thank you very much for using Q-Chem.  Have a nice day.  *
 Q-Chem 4.3, Q-Chem, Inc., Pleasanton, CA (2015)
 Q-Chem 4.3.0 for Intel X86 Linux

User input:
--------------------------------------------------------------

$comment
job3 - cvs-adc(2) calculation
$end

$molecule
read
$end

$rem
mem_total 3000
mem_static 1500
sym_ignore true
scf_guess read
method cvs-adc(2)
basis 6-31G*
ee_singlets 20
cc_rest_occ 5                  !only excitations from the lowest N orbitals
unrestricted  true
max_scf_cycles 200
$end
--------------------------------------------------------------

             Standard Nuclear Orientation (Angstroms)
    I     Atom           X                Y                Z
 ----------------------------------------------------------------
    1      C      -0.4975800000     2.8534030000    -0.2101210000
    2      F       0.6939170000     2.6335510000    -0.1204600000
    3      F      -1.0298540000     3.5203910000     0.6671940000
    4      F      -1.5759140000     0.0620480000     0.9139260000
    5      F      -1.0100300000     2.8650620000    -1.3274520000
 ----------------------------------------------------------------

    9    -435.3411801821      3.37E-09 Convergence criterion met
 Total energy in the final basis set = -435.3411801821
  Term symbol:  2 (-) A                                     R^2 =  4.17185e-13
  Excitation energy:                                             294.535356 eV
  Term symbol:  3 (-) A                                     R^2 =  2.26203e-13
  Excitation energy:                                             296.454117 eV
  Term symbol:  4 (-) A                                     R^2 =  1.38553e-13
  Excitation energy:                                             303.414007 eV
  Term symbol:  5 (-) A                                     R^2 =  4.49493e-14
  Excitation energy:                                             305.035854 eV
  Term symbol:  6 (-) A                                     R^2 =  1.05801e-13
  Excitation energy:                                             305.038838 eV
  Term symbol:  7 (-) A                                     R^2 =  2.58009e-14
  Excitation energy:                                             305.326009 eV
  Term symbol:  8 (-) A                                     R^2 =  4.07561e-14
  Excitation energy:                                             307.188264 eV
  Term symbol:  9 (-) A                                     R^2 =  2.93100e-14
  Excitation energy:                                             307.468307 eV
  Term symbol:  10 (-) A                                    R^2 =  9.53096e-14
  Excitation energy:                                             312.993958 eV
  Excited state 10 (A)                                             [converged]
  Term symbol:  11 (-) A                                    R^2 =  1.32687e-13
  Excitation energy:                                             314.065203 eV
  Excited state 11 (A)                                             [converged]
  Term symbol:  12 (-) A                                    R^2 =  1.32012e-13
  Excitation energy:                                             314.489515 eV
  Excited state 12 (A)                                             [converged]
  Term symbol:  13 (-) A                                    R^2 =  7.49793e-14
  Excitation energy:                                             314.579921 eV
  Excited state 13 (A)                                             [converged]
  Term symbol:  14 (-) A                                    R^2 =  1.30657e-13
  Excitation energy:                                             314.723633 eV
  Excited state 14 (A)                                             [converged]
  Term symbol:  15 (-) A                                    R^2 =  1.48168e-13
  Excitation energy:                                             314.948678 eV
  Excited state 15 (A)                                             [converged]
  Term symbol:  16 (-) A                                    R^2 =  3.97395e-13
  Excitation energy:                                             315.005916 eV
  Excited state 16 (A)                                             [converged]
  Term symbol:  17 (-) A                                    R^2 =  5.83628e-13
  Excitation energy:                                             315.946976 eV
  Excited state 17 (A)                                             [converged]
  Term symbol:  18 (-) A                                    R^2 =  1.01123e-10
  Excitation energy:                                             326.527292 eV
  Excited state 18 (A)                                             [converged]
  Term symbol:  19 (-) A                                    R^2 =  1.26036e-12
  Excitation energy:                                             326.555411 eV
  Excited state 19 (A)                                         [not converged]
  Term symbol:  20 (-) A                                    R^2 =  4.12478e-04
  Excitation energy:                                             331.870323 eV
  Excited state 20 (A)                                         [not converged]
  Term symbol:  21 (-) A                                    R^2 =  7.92275e-03
  Excitation energy:                                             332.016351 eV

                    Orbital Energies (a.u.)
 --------------------------------------------------------------

 Alpha MOs
 -- Occupied --
-26.565 -26.560 -26.558 -25.978 -11.765  -1.987  -1.883  -1.876
 -1.222  -1.147  -1.061  -1.060  -1.004  -0.895  -0.894  -0.867
 -0.863  -0.841  -0.335  -0.335  -0.299

 Beta MOs
 -- Occupied --
-26.565 -26.560 -26.558 -25.978 -11.765  -1.987  -1.883  -1.876
 -1.222  -1.147  -1.061  -1.060  -1.004  -0.895  -0.894  -0.867
 -0.863  -0.841  -0.335  -0.335  -0.299

          Ground-State Mulliken Net Atomic Charges

     Atom                 Charge (a.u.)    Spin (a.u.)
  --------------------------------------------------------
      1 C                     1.155972       0.000000
      2 F                    -0.106472       0.000000
      3 F                    -0.115132       0.000000
      4 F                    -0.808458       0.000000
      5 F                    -0.125911       0.000000
  --------------------------------------------------------
  Sum of atomic charges =     0.000000

                    Cartesian Multipole Moments
 -----------------------------------------------------------------
    Charge (ESU x 10^10)
                 0.0000
    Dipole Moment (Debye)
         X       4.1488      Y      10.5864      Z      -4.2527
       Tot      12.1396
    Quadrupole Moments (Debye-Ang)
        XX     -31.2316     XY      -4.7033     YY       8.4857
        XZ       5.7831     YZ      -2.5934     ZZ     -25.7730

 Total job time:  2070.28s(wall), 3259.22s(cpu)
        *  Thank you very much for using Q-Chem.  Have a nice day.  *
