 Q-Chem 4.3, Q-Chem, Inc., Pleasanton, CA (2015)
 Q-Chem 4.3.0 for Intel X86 Linux

User input:
--------------------------------------------------------------
$comment
XAS calculation for the 2b valence excited for water using cvs-adc(2)-x + 6-311+G* basis set
job 1 - determination of HF orbitals
$end

$molecule
0 1
6  -0.570156  2.695172  -0.141902
9  0.676026  2.565154  -0.094144
9  -1.055217  3.466157  0.695616
9  -1.459283  0.358129  0.78779
9  -1.038715  2.790283  -1.30142
$end

$rem
jobtype      sp
sym_ignore true
exchange     hf
basis        6-31G*
unrestricted true
$end

--------------------------------------------------------------

    9    -435.3901618207      8.27E-06 Convergence criterion met
 Total energy in the final basis set = -435.3901618207
 Total job time:  2.47s(wall), 10.14s(cpu)
        *  Thank you very much for using Q-Chem.  Have a nice day.  *
 Q-Chem 4.3, Q-Chem, Inc., Pleasanton, CA (2015)
 Q-Chem 4.3.0 for Intel X86 Linux

User input:
--------------------------------------------------------------

$comment
job3 - cvs-adc(2) calculation
$end

$molecule
read
$end

$rem
mem_total 3000
mem_static 1500
sym_ignore true
scf_guess read
method cvs-adc(2)
basis 6-31G*
ee_singlets 20
cc_rest_occ 5                  !only excitations from the lowest N orbitals
unrestricted  true
max_scf_cycles 200
$end
--------------------------------------------------------------

             Standard Nuclear Orientation (Angstroms)
    I     Atom           X                Y                Z
 ----------------------------------------------------------------
    1      C      -0.5701560000     2.6951720000    -0.1419020000
    2      F       0.6760260000     2.5651540000    -0.0941440000
    3      F      -1.0552170000     3.4661570000     0.6956160000
    4      F      -1.4592830000     0.3581290000     0.7877900000
    5      F      -1.0387150000     2.7902830000    -1.3014200000
 ----------------------------------------------------------------

    8    -435.3901625823      4.96E-09 Convergence criterion met
 Total energy in the final basis set = -435.3901625823
  Term symbol:  2 (-) A                                     R^2 =  8.09047e-13
  Excitation energy:                                             294.332130 eV
  Term symbol:  3 (-) A                                     R^2 =  1.04244e-12
  Excitation energy:                                             296.250492 eV
  Term symbol:  4 (-) A                                     R^2 =  8.93906e-12
  Excitation energy:                                             303.624821 eV
  Term symbol:  5 (-) A                                     R^2 =  4.11613e-12
  Excitation energy:                                             303.720845 eV
  Term symbol:  6 (-) A                                     R^2 =  2.95860e-12
  Excitation energy:                                             304.195459 eV
  Term symbol:  7 (-) A                                     R^2 =  2.29407e-12
  Excitation energy:                                             305.550754 eV
  Term symbol:  8 (-) A                                     R^2 =  7.90590e-13
  Excitation energy:                                             305.803475 eV
  Term symbol:  9 (-) A                                     R^2 =  2.57074e-12
  Excitation energy:                                             306.230892 eV
  Term symbol:  10 (-) A                                    R^2 =  1.13894e-11
  Excitation energy:                                             313.097343 eV
  Excited state 10 (A)                                             [converged]
  Term symbol:  11 (-) A                                    R^2 =  5.25380e-13
  Excitation energy:                                             314.051538 eV
  Excited state 11 (A)                                             [converged]
  Term symbol:  12 (-) A                                    R^2 =  5.10664e-13
  Excitation energy:                                             314.160045 eV
  Excited state 12 (A)                                             [converged]
  Term symbol:  13 (-) A                                    R^2 =  1.70968e-13
  Excitation energy:                                             314.183011 eV
  Excited state 13 (A)                                             [converged]
  Term symbol:  14 (-) A                                    R^2 =  2.12306e-13
  Excitation energy:                                             314.635119 eV
  Excited state 14 (A)                                             [converged]
  Term symbol:  15 (-) A                                    R^2 =  7.27272e-13
  Excitation energy:                                             314.681129 eV
  Excited state 15 (A)                                             [converged]
  Term symbol:  16 (-) A                                    R^2 =  1.09258e-11
  Excitation energy:                                             315.348210 eV
  Excited state 16 (A)                                             [converged]
  Term symbol:  17 (-) A                                    R^2 =  2.90712e-10
  Excitation energy:                                             316.450980 eV
  Excited state 17 (A)                                             [converged]
  Term symbol:  18 (-) A                                    R^2 =  9.62848e-07
  Excitation energy:                                             328.276858 eV
  Excited state 18 (A)                                             [converged]
  Term symbol:  19 (-) A                                    R^2 =  2.87253e-08
  Excitation energy:                                             328.336430 eV
  Excited state 19 (A)                                         [not converged]
  Term symbol:  20 (-) A                                    R^2 =  1.17994e-03
  Excitation energy:                                             331.644300 eV
  Excited state 20 (A)                                         [not converged]
  Term symbol:  21 (-) A                                    R^2 =  1.07729e-03
  Excitation energy:                                             331.786307 eV

                    Orbital Energies (a.u.)
 --------------------------------------------------------------

 Alpha MOs
 -- Occupied --
-26.512 -26.508 -26.506 -26.100 -11.723  -1.924  -1.820  -1.812
 -1.322  -1.100  -1.002  -1.000  -0.944  -0.846  -0.844  -0.814
 -0.811  -0.792  -0.438  -0.438  -0.381

 Beta MOs
 -- Occupied --
-26.512 -26.508 -26.506 -26.100 -11.723  -1.924  -1.820  -1.812
 -1.322  -1.100  -1.002  -1.000  -0.944  -0.846  -0.844  -0.814
 -0.811  -0.792  -0.438  -0.438  -0.381

          Ground-State Mulliken Net Atomic Charges

     Atom                 Charge (a.u.)    Spin (a.u.)
  --------------------------------------------------------
      1 C                     1.122989       0.000000
      2 F                    -0.170228       0.000000
      3 F                    -0.149490       0.000000
      4 F                    -0.631933       0.000000
      5 F                    -0.171338       0.000000
  --------------------------------------------------------
  Sum of atomic charges =     0.000000

                    Cartesian Multipole Moments
 -----------------------------------------------------------------
    Charge (ESU x 10^10)
                 0.0000
    Dipole Moment (Debye)
         X       2.5755      Y       6.9105      Z      -2.6892
       Tot       7.8498
    Quadrupole Moments (Debye-Ang)
        XX     -28.6141     XY      -2.8850     YY      -1.5677
        XZ       3.4864     YZ      -2.0331     ZZ     -25.1088

 Total job time:  2109.35s(wall), 3385.91s(cpu)
        *  Thank you very much for using Q-Chem.  Have a nice day.  *
