 Q-Chem 4.3, Q-Chem, Inc., Pleasanton, CA (2015)
 Q-Chem 4.3.0 for Intel X86 Linux

User input:
--------------------------------------------------------------
$comment
XAS calculation for the 2b valence excited for water using cvs-adc(2)-x + 6-311+G* basis set
job 1 - determination of HF orbitals
$end

$molecule
0 1
6  -0.332553  3.059866  -0.314338
9  0.813666  2.768828  -0.220395
9  -1.005545  3.287346  0.688896
9  -1.8995  0.0461  1.102367
9  -0.919685  2.832417  -1.374033
$end

$rem
jobtype      sp
sym_ignore true
exchange     hf
basis        6-31G*
unrestricted true
$end

--------------------------------------------------------------

   12    -435.3014266462      8.27E-06 Convergence criterion met
 Total energy in the final basis set = -435.3014266462
 Total job time:  3.21s(wall), 14.44s(cpu)
        *  Thank you very much for using Q-Chem.  Have a nice day.  *
 Q-Chem 4.3, Q-Chem, Inc., Pleasanton, CA (2015)
 Q-Chem 4.3.0 for Intel X86 Linux

User input:
--------------------------------------------------------------

$comment
job3 - cvs-adc(2) calculation
$end

$molecule
read
$end

$rem
mem_total 3000
mem_static 1500
sym_ignore true
scf_guess read
method cvs-adc(2)
basis 6-31G*
ee_singlets 20
cc_rest_occ 5                  !only excitations from the lowest N orbitals
unrestricted  true
max_scf_cycles 200
$end
--------------------------------------------------------------

             Standard Nuclear Orientation (Angstroms)
    I     Atom           X                Y                Z
 ----------------------------------------------------------------
    1      C      -0.3325530000     3.0598660000    -0.3143380000
    2      F       0.8136660000     2.7688280000    -0.2203950000
    3      F      -1.0055450000     3.2873460000     0.6888960000
    4      F      -1.8995000000     0.0461000000     1.1023670000
    5      F      -0.9196850000     2.8324170000    -1.3740330000
 ----------------------------------------------------------------

    9    -435.3014272719      9.73E-09 Convergence criterion met
 Total energy in the final basis set = -435.3014272719
  Term symbol:  2 (-) A                                     R^2 =  2.46506e-08
  Excitation energy:                                             294.298164 eV
  Term symbol:  3 (-) A                                     R^2 =  9.08951e-09
  Excitation energy:                                             296.179123 eV
  Term symbol:  4 (-) A                                     R^2 =  1.35357e-08
  Excitation energy:                                             303.228236 eV
  Term symbol:  5 (-) A                                     R^2 =  2.70417e-08
  Excitation energy:                                             304.848539 eV
  Term symbol:  6 (-) A                                     R^2 =  2.25749e-08
  Excitation energy:                                             305.190529 eV
  Term symbol:  7 (-) A                                     R^2 =  2.34570e-08
  Excitation energy:                                             306.259992 eV
  Term symbol:  8 (-) A                                     R^2 =  1.79119e-08
  Excitation energy:                                             307.363818 eV
  Term symbol:  9 (-) A                                     R^2 =  1.00365e-08
  Excitation energy:                                             308.359915 eV
  Term symbol:  10 (-) A                                    R^2 =  2.42377e-08
  Excitation energy:                                             312.958965 eV
  Excited state 10 (A)                                             [converged]
  Term symbol:  11 (-) A                                    R^2 =  9.77598e-08
  Excitation energy:                                             314.222101 eV
  Excited state 11 (A)                                             [converged]
  Term symbol:  12 (-) A                                    R^2 =  4.44359e-09
  Excitation energy:                                             314.565369 eV
  Excited state 12 (A)                                             [converged]
  Term symbol:  13 (-) A                                    R^2 =  3.12774e-08
  Excitation energy:                                             314.755468 eV
  Excited state 13 (A)                                             [converged]
  Term symbol:  14 (-) A                                    R^2 =  3.78522e-08
  Excitation energy:                                             315.044249 eV
  Excited state 14 (A)                                             [converged]
  Term symbol:  15 (-) A                                    R^2 =  4.34434e-08
  Excitation energy:                                             315.162370 eV
  Excited state 15 (A)                                             [converged]
  Term symbol:  16 (-) A                                    R^2 =  7.00690e-09
  Excitation energy:                                             315.306699 eV
  Excited state 16 (A)                                             [converged]
  Term symbol:  17 (-) A                                    R^2 =  3.29650e-08
  Excitation energy:                                             316.124451 eV
  Excited state 17 (A)                                         [not converged]
  Term symbol:  18 (-) A                                    R^2 =  3.53303e-04
  Excitation energy:                                             323.983303 eV
  Excited state 18 (A)                                             [converged]
  Term symbol:  19 (-) A                                    R^2 =  1.66312e-08
  Excitation energy:                                             323.985715 eV
  Excited state 19 (A)                                         [not converged]
  Term symbol:  20 (-) A                                    R^2 =  1.17693e-01
  Excitation energy:                                             324.244455 eV
  Excited state 20 (A)                                         [not converged]
  Term symbol:  21 (-) A                                    R^2 =  3.08120e-01
  Excitation energy:                                             325.375071 eV

                    Orbital Energies (a.u.)
 --------------------------------------------------------------

 Alpha MOs
 -- Occupied --
-26.623 -26.597 -26.593 -25.861 -11.807  -2.038  -1.934  -1.907
 -1.187  -1.127  -1.104  -1.100  -1.050  -0.934  -0.928  -0.912
 -0.892  -0.878  -0.238  -0.238  -0.233

 Beta MOs
 -- Occupied --
-26.623 -26.597 -26.593 -25.861 -11.807  -2.038  -1.934  -1.907
 -1.187  -1.127  -1.104  -1.100  -1.050  -0.934  -0.928  -0.912
 -0.892  -0.878  -0.238  -0.238  -0.233

          Ground-State Mulliken Net Atomic Charges

     Atom                 Charge (a.u.)    Spin (a.u.)
  --------------------------------------------------------
      1 C                     1.216191       0.000000
      2 F                    -0.056239       0.000000
      3 F                    -0.082664       0.000000
      4 F                    -0.969479       0.000000
      5 F                    -0.107809       0.000000
  --------------------------------------------------------
  Sum of atomic charges =     0.000000

                    Cartesian Multipole Moments
 -----------------------------------------------------------------
    Charge (ESU x 10^10)
                 0.0000
    Dipole Moment (Debye)
         X       7.3034      Y      13.8610      Z      -6.3935
       Tot      16.9217
    Quadrupole Moments (Debye-Ang)
        XX     -38.3030     XY      -3.8686     YY      21.2536
        XZ       9.9260     YZ      -4.4401     ZZ     -27.5095

 Total job time:  2260.18s(wall), 3692.40s(cpu)
        *  Thank you very much for using Q-Chem.  Have a nice day.  *
