 Q-Chem 4.3, Q-Chem, Inc., Pleasanton, CA (2015)
 Q-Chem 4.3.0 for Intel X86 Linux

User input:
--------------------------------------------------------------
$comment
XAS calculation for the 2b valence excited for water using cvs-adc(2)-x + 6-311+G* basis set
job 1 - determination of HF orbitals
$end

$molecule
0 1
6  -0.679165  2.396205  -0.040868
9  0.600702  2.344299  0.003135
9  -1.133516  3.288283  0.787153
9  -1.138916  1.1769  0.431709
9  -1.129467  2.553584  -1.195182
$end

$rem
jobtype      sp
sym_ignore true
exchange     hf
basis        6-31G*
unrestricted true
$end

--------------------------------------------------------------

    8    -435.6362629285      3.51E-06 Convergence criterion met
 Total energy in the final basis set = -435.6362629285
 Total job time:  6.07s(wall), 11.34s(cpu)
        *  Thank you very much for using Q-Chem.  Have a nice day.  *
 Q-Chem 4.3, Q-Chem, Inc., Pleasanton, CA (2015)
 Q-Chem 4.3.0 for Intel X86 Linux

User input:
--------------------------------------------------------------

$comment
job3 - cvs-adc(2) calculation
$end

$molecule
read
$end

$rem
mem_total 3000
mem_static 1500
sym_ignore true
scf_guess read
method cvs-adc(2)
basis 6-31G*
ee_singlets 20
cc_rest_occ 5                  !only excitations from the lowest N orbitals
unrestricted  true
max_scf_cycles 200
$end
--------------------------------------------------------------

             Standard Nuclear Orientation (Angstroms)
    I     Atom           X                Y                Z
 ----------------------------------------------------------------
    1      C      -0.6791650000     2.3962050000    -0.0408680000
    2      F       0.6007020000     2.3442990000     0.0031350000
    3      F      -1.1335160000     3.2882830000     0.7871530000
    4      F      -1.1389160000     1.1769000000     0.4317090000
    5      F      -1.1294670000     2.5535840000    -1.1951820000
 ----------------------------------------------------------------

    5    -435.6362629964      4.52E-09 Convergence criterion met
 Total energy in the final basis set = -435.6362629964
  Term symbol:  2 (-) A                                     R^2 =  8.44849e-14
  Excitation energy:                                             300.003781 eV
  Term symbol:  3 (-) A                                     R^2 =  7.77732e-14
  Excitation energy:                                             301.977249 eV
  Term symbol:  4 (-) A                                     R^2 =  2.71949e-14
  Excitation energy:                                             302.150384 eV
  Term symbol:  5 (-) A                                     R^2 =  2.65033e-13
  Excitation energy:                                             302.804327 eV
  Term symbol:  6 (-) A                                     R^2 =  8.42783e-14
  Excitation energy:                                             304.147697 eV
  Term symbol:  7 (-) A                                     R^2 =  8.56223e-14
  Excitation energy:                                             304.190581 eV
  Term symbol:  8 (-) A                                     R^2 =  4.04554e-14
  Excitation energy:                                             305.023553 eV
  Term symbol:  9 (-) A                                     R^2 =  1.56426e-13
  Excitation energy:                                             306.634706 eV
  Term symbol:  10 (-) A                                    R^2 =  4.72100e-14
  Excitation energy:                                             312.774865 eV
  Excited state 10 (A)                                             [converged]
  Term symbol:  11 (-) A                                    R^2 =  1.28943e-13
  Excitation energy:                                             313.549315 eV
  Excited state 11 (A)                                             [converged]
  Term symbol:  12 (-) A                                    R^2 =  6.24430e-14
  Excitation energy:                                             313.643317 eV
  Excited state 12 (A)                                             [converged]
  Term symbol:  13 (-) A                                    R^2 =  1.75637e-13
  Excitation energy:                                             313.747074 eV
  Excited state 13 (A)                                             [converged]
  Term symbol:  14 (-) A                                    R^2 =  4.11994e-14
  Excitation energy:                                             314.038482 eV
  Excited state 14 (A)                                             [converged]
  Term symbol:  15 (-) A                                    R^2 =  1.66777e-13
  Excitation energy:                                             314.163292 eV
  Excited state 15 (A)                                             [converged]
  Term symbol:  16 (-) A                                    R^2 =  1.53701e-13
  Excitation energy:                                             314.227735 eV
  Excited state 16 (A)                                             [converged]
  Term symbol:  17 (-) A                                    R^2 =  4.25338e-13
  Excitation energy:                                             314.679092 eV
  Excited state 17 (A)                                             [converged]
  Term symbol:  18 (-) A                                    R^2 =  1.34282e-07
  Excitation energy:                                             330.203194 eV
  Excited state 18 (A)                                             [converged]
  Term symbol:  19 (-) A                                    R^2 =  4.38433e-08
  Excitation energy:                                             330.228559 eV
  Excited state 19 (A)                                             [converged]
  Term symbol:  20 (-) A                                    R^2 =  8.18110e-07
  Excitation energy:                                             330.252599 eV
  Excited state 20 (A)                                             [converged]
  Term symbol:  21 (-) A                                    R^2 =  2.06075e-07
  Excitation energy:                                             330.275958 eV

                    Orbital Energies (a.u.)
 --------------------------------------------------------------

 Alpha MOs
 -- Occupied --
-26.399 -26.385 -26.377 -26.337 -11.606  -1.824  -1.711  -1.688
 -1.629  -1.009  -0.903  -0.897  -0.883  -0.763  -0.760  -0.721
 -0.711  -0.684  -0.679  -0.658  -0.655

 Beta MOs
 -- Occupied --
-26.399 -26.385 -26.377 -26.337 -11.606  -1.824  -1.711  -1.688
 -1.629  -1.009  -0.903  -0.897  -0.883  -0.763  -0.760  -0.721
 -0.711  -0.684  -0.679  -0.658  -0.655

          Ground-State Mulliken Net Atomic Charges

     Atom                 Charge (a.u.)    Spin (a.u.)
  --------------------------------------------------------
      1 C                     1.303177       0.000000
      2 F                    -0.305388       0.000000
      3 F                    -0.324342       0.000000
      4 F                    -0.404978       0.000000
      5 F                    -0.268469       0.000000
  --------------------------------------------------------
  Sum of atomic charges =     0.000000

                    Cartesian Multipole Moments
 -----------------------------------------------------------------
    Charge (ESU x 10^10)
                 0.0000
    Dipole Moment (Debye)
         X       0.2295      Y       0.6214      Z      -0.5363
       Tot       0.8523
    Quadrupole Moments (Debye-Ang)
        XX     -25.1235     XY      -0.0809     YY     -22.4215
        XZ       0.5358     YZ      -1.1473     ZZ     -24.6595

 Total job time:  1812.81s(wall), 3001.65s(cpu)
        *  Thank you very much for using Q-Chem.  Have a nice day.  *
