 Q-Chem 4.3, Q-Chem, Inc., Pleasanton, CA (2015)
 Q-Chem 4.3.0 for Intel X86 Linux

User input:
--------------------------------------------------------------
$comment
XAS calculation for the 2b valence excited for water using cvs-adc(2)-x + 6-311+G* basis set
job 1 - determination of HF orbitals
$end

$molecule
0 1
6  -0.501079  2.696837  -0.150457
9  0.605257  2.346902  -0.008844
9  -1.144518  3.211009  0.794737
9  -1.236226  1.073438  0.514444
9  -1.129938  2.534358  -1.206622
$end

$rem
jobtype      sp
sym_ignore true
exchange     hf
basis        6-31G*
unrestricted true
$end

--------------------------------------------------------------

    8    -435.4640602395      7.04E-06 Convergence criterion met
 Total energy in the final basis set = -435.4640602395
 Total job time:  2.33s(wall), 10.27s(cpu)
        *  Thank you very much for using Q-Chem.  Have a nice day.  *
 Q-Chem 4.3, Q-Chem, Inc., Pleasanton, CA (2015)
 Q-Chem 4.3.0 for Intel X86 Linux

User input:
--------------------------------------------------------------

$comment
job3 - cvs-adc(2) calculation
$end

$molecule
read
$end

$rem
mem_total 3000
mem_static 1500
sym_ignore true
scf_guess read
method cvs-adc(2)
basis 6-31G*
ee_singlets 20
cc_rest_occ 5                  !only excitations from the lowest N orbitals
unrestricted  true
max_scf_cycles 200
$end
--------------------------------------------------------------

             Standard Nuclear Orientation (Angstroms)
    I     Atom           X                Y                Z
 ----------------------------------------------------------------
    1      C      -0.5010790000     2.6968370000    -0.1504570000
    2      F       0.6052570000     2.3469020000    -0.0088440000
    3      F      -1.1445180000     3.2110090000     0.7947370000
    4      F      -1.2362260000     1.0734380000     0.5144440000
    5      F      -1.1299380000     2.5343580000    -1.2066220000
 ----------------------------------------------------------------

    6    -435.4640603520      8.53E-09 Convergence criterion met
 Total energy in the final basis set = -435.4640603520
  Term symbol:  2 (-) A                                     R^2 =  9.65480e-14
  Excitation energy:                                             295.216917 eV
  Term symbol:  3 (-) A                                     R^2 =  8.03267e-14
  Excitation energy:                                             297.089324 eV
  Term symbol:  4 (-) A                                     R^2 =  1.27929e-13
  Excitation energy:                                             303.561902 eV
  Term symbol:  5 (-) A                                     R^2 =  2.70030e-13
  Excitation energy:                                             304.429272 eV
  Term symbol:  6 (-) A                                     R^2 =  1.47444e-13
  Excitation energy:                                             305.582220 eV
  Term symbol:  7 (-) A                                     R^2 =  1.17683e-13
  Excitation energy:                                             306.613481 eV
  Term symbol:  8 (-) A                                     R^2 =  1.70209e-13
  Excitation energy:                                             306.778873 eV
  Term symbol:  9 (-) A                                     R^2 =  1.14137e-13
  Excitation energy:                                             308.814435 eV
  Term symbol:  10 (-) A                                    R^2 =  2.03959e-13
  Excitation energy:                                             311.874947 eV
  Excited state 10 (A)                                             [converged]
  Term symbol:  11 (-) A                                    R^2 =  1.11650e-13
  Excitation energy:                                             313.454771 eV
  Excited state 11 (A)                                             [converged]
  Term symbol:  12 (-) A                                    R^2 =  8.33342e-14
  Excitation energy:                                             314.220823 eV
  Excited state 12 (A)                                             [converged]
  Term symbol:  13 (-) A                                    R^2 =  2.44103e-13
  Excitation energy:                                             314.577085 eV
  Excited state 13 (A)                                             [converged]
  Term symbol:  14 (-) A                                    R^2 =  2.08412e-13
  Excitation energy:                                             314.587001 eV
  Excited state 14 (A)                                             [converged]
  Term symbol:  15 (-) A                                    R^2 =  9.61461e-13
  Excitation energy:                                             315.069851 eV
  Excited state 15 (A)                                             [converged]
  Term symbol:  16 (-) A                                    R^2 =  1.01708e-12
  Excitation energy:                                             319.006385 eV
  Excited state 16 (A)                                             [converged]
  Term symbol:  17 (-) A                                    R^2 =  6.02825e-13
  Excitation energy:                                             319.481128 eV
  Excited state 17 (A)                                             [converged]
  Term symbol:  18 (-) A                                    R^2 =  8.88647e-10
  Excitation energy:                                             330.770554 eV
  Excited state 18 (A)                                             [converged]
  Term symbol:  19 (-) A                                    R^2 =  5.76104e-09
  Excitation energy:                                             330.948375 eV
  Excited state 19 (A)                                             [converged]
  Term symbol:  20 (-) A                                    R^2 =  7.79816e-07
  Excitation energy:                                             331.819909 eV
  Excited state 20 (A)                                         [not converged]
  Term symbol:  21 (-) A                                    R^2 =  1.02501e-05
  Excitation energy:                                             331.950736 eV

                    Orbital Energies (a.u.)
 --------------------------------------------------------------

 Alpha MOs
 -- Occupied --
-26.498 -26.459 -26.442 -26.095 -11.675  -1.916  -1.810  -1.765
 -1.359  -1.069  -0.984  -0.975  -0.925  -0.811  -0.806  -0.801
 -0.773  -0.749  -0.454  -0.452  -0.444

 Beta MOs
 -- Occupied --
-26.498 -26.459 -26.442 -26.095 -11.675  -1.916  -1.810  -1.765
 -1.359  -1.069  -0.984  -0.975  -0.925  -0.811  -0.806  -0.801
 -0.773  -0.749  -0.454  -0.452  -0.444

          Ground-State Mulliken Net Atomic Charges

     Atom                 Charge (a.u.)    Spin (a.u.)
  --------------------------------------------------------
      1 C                     1.193133       0.000000
      2 F                    -0.096247       0.000000
      3 F                    -0.197040       0.000000
      4 F                    -0.712543       0.000000
      5 F                    -0.187303       0.000000
  --------------------------------------------------------
  Sum of atomic charges =     0.000000

                    Cartesian Multipole Moments
 -----------------------------------------------------------------
    Charge (ESU x 10^10)
                 0.0000
    Dipole Moment (Debye)
         X       2.7509      Y       5.0704      Z      -2.1474
       Tot       6.1553
    Quadrupole Moments (Debye-Ang)
        XX     -27.4796     XY       1.4186     YY      -3.6514
        XZ       2.1298     YZ      -3.5392     ZZ     -24.2093

 Total job time:  2065.30s(wall), 3365.32s(cpu)
        *  Thank you very much for using Q-Chem.  Have a nice day.  *
