 Q-Chem 4.3, Q-Chem, Inc., Pleasanton, CA (2015)
 Q-Chem 4.3.0 for Intel X86 Linux

User input:
--------------------------------------------------------------
$comment
XAS calculation for the 2b valence excited for water using cvs-adc(2)-x + 6-311+G* basis set
job 1 - determination of HF orbitals
$end

$molecule
0 1
6  -0.576639  2.674887  -0.149724
9  0.644855  2.57276  -0.076695
9  -1.073419  3.609434  0.698362
9  -1.412477  0.164574  0.79809
9  -1.066995  2.862248  -1.319397
$end

$rem
jobtype      sp
sym_ignore true
exchange     hf
basis        6-31G*
unrestricted true
$end

--------------------------------------------------------------

   12    -435.3481546330      7.30E-06 Convergence criterion met
 Total energy in the final basis set = -435.3481546330
 Total job time:  3.20s(wall), 13.72s(cpu)
        *  Thank you very much for using Q-Chem.  Have a nice day.  *
 Q-Chem 4.3, Q-Chem, Inc., Pleasanton, CA (2015)
 Q-Chem 4.3.0 for Intel X86 Linux

User input:
--------------------------------------------------------------

$comment
job3 - cvs-adc(2) calculation
$end

$molecule
read
$end

$rem
mem_total 3000
mem_static 1500
sym_ignore true
scf_guess read
method cvs-adc(2)
basis 6-31G*
ee_singlets 20
cc_rest_occ 5                  !only excitations from the lowest N orbitals
unrestricted  true
max_scf_cycles 200
$end
--------------------------------------------------------------

             Standard Nuclear Orientation (Angstroms)
    I     Atom           X                Y                Z
 ----------------------------------------------------------------
    1      C      -0.5766390000     2.6748870000    -0.1497240000
    2      F       0.6448550000     2.5727600000    -0.0766950000
    3      F      -1.0734190000     3.6094340000     0.6983620000
    4      F      -1.4124770000     0.1645740000     0.7980900000
    5      F      -1.0669950000     2.8622480000    -1.3193970000
 ----------------------------------------------------------------

    9    -435.3481553618      3.14E-09 Convergence criterion met
 Total energy in the final basis set = -435.3481553618
  Term symbol:  2 (-) A                                     R^2 =  2.20267e-10
  Excitation energy:                                             294.040547 eV
  Term symbol:  3 (-) A                                     R^2 =  1.73133e-10
  Excitation energy:                                             295.818582 eV
  Term symbol:  4 (-) A                                     R^2 =  2.77350e-11
  Excitation energy:                                             301.015270 eV
  Term symbol:  5 (-) A                                     R^2 =  4.35682e-13
  Excitation energy:                                             302.776973 eV
  Term symbol:  6 (-) A                                     R^2 =  2.70758e-11
  Excitation energy:                                             303.074710 eV
  Term symbol:  7 (-) A                                     R^2 =  3.65467e-11
  Excitation energy:                                             304.161621 eV
  Term symbol:  8 (-) A                                     R^2 =  6.55758e-11
  Excitation energy:                                             304.841197 eV
  Term symbol:  9 (-) A                                     R^2 =  1.68087e-11
  Excitation energy:                                             306.037509 eV
  Term symbol:  10 (-) A                                    R^2 =  1.85125e-11
  Excitation energy:                                             313.314199 eV
  Excited state 10 (A)                                             [converged]
  Term symbol:  11 (-) A                                    R^2 =  7.60589e-12
  Excitation energy:                                             313.681478 eV
  Excited state 11 (A)                                             [converged]
  Term symbol:  12 (-) A                                    R^2 =  2.13606e-12
  Excitation energy:                                             313.918107 eV
  Excited state 12 (A)                                             [converged]
  Term symbol:  13 (-) A                                    R^2 =  1.53654e-11
  Excitation energy:                                             314.030133 eV
  Excited state 13 (A)                                             [converged]
  Term symbol:  14 (-) A                                    R^2 =  6.55555e-11
  Excitation energy:                                             314.107613 eV
  Excited state 14 (A)                                             [converged]
  Term symbol:  15 (-) A                                    R^2 =  2.14499e-11
  Excitation energy:                                             314.240121 eV
  Excited state 15 (A)                                             [converged]
  Term symbol:  16 (-) A                                    R^2 =  7.92274e-12
  Excitation energy:                                             314.454139 eV
  Excited state 16 (A)                                             [converged]
  Term symbol:  17 (-) A                                    R^2 =  2.06113e-11
  Excitation energy:                                             315.303631 eV
  Excited state 17 (A)                                             [converged]
  Term symbol:  18 (-) A                                    R^2 =  2.68197e-11
  Excitation energy:                                             325.762668 eV
  Excited state 18 (A)                                             [converged]
  Term symbol:  19 (-) A                                    R^2 =  1.72342e-11
  Excitation energy:                                             325.859830 eV
  Excited state 19 (A)                                         [not converged]
  Term symbol:  20 (-) A                                    R^2 =  9.63612e-05
  Excitation energy:                                             330.975823 eV
  Excited state 20 (A)                                         [not converged]
  Term symbol:  21 (-) A                                    R^2 =  3.51970e-04
  Excitation energy:                                             331.107541 eV

                    Orbital Energies (a.u.)
 --------------------------------------------------------------

 Alpha MOs
 -- Occupied --
-26.522 -26.502 -26.471 -26.135 -11.721  -1.905  -1.811  -1.750
 -1.347  -1.091  -0.983  -0.969  -0.926  -0.836  -0.815  -0.809
 -0.781  -0.770  -0.466  -0.466  -0.384

 Beta MOs
 -- Occupied --
-26.522 -26.502 -26.471 -26.135 -11.721  -1.905  -1.811  -1.750
 -1.347  -1.091  -0.983  -0.969  -0.926  -0.836  -0.815  -0.809
 -0.781  -0.770  -0.466  -0.466  -0.384

          Ground-State Mulliken Net Atomic Charges

     Atom                 Charge (a.u.)    Spin (a.u.)
  --------------------------------------------------------
      1 C                     1.145029       0.000000
      2 F                    -0.129642       0.000000
      3 F                    -0.259584       0.000000
      4 F                    -0.561572       0.000000
      5 F                    -0.194231       0.000000
  --------------------------------------------------------
  Sum of atomic charges =     0.000000

                    Cartesian Multipole Moments
 -----------------------------------------------------------------
    Charge (ESU x 10^10)
                 0.0000
    Dipole Moment (Debye)
         X       2.5426      Y       6.1919      Z      -2.6770
       Tot       7.2090
    Quadrupole Moments (Debye-Ang)
        XX     -28.1010     XY      -1.8667     YY      -6.5007
        XZ       3.2432     YZ      -2.3347     ZZ     -25.3207

 Total job time:  2029.58s(wall), 3313.96s(cpu)
        *  Thank you very much for using Q-Chem.  Have a nice day.  *
