 Q-Chem 4.3, Q-Chem, Inc., Pleasanton, CA (2015)
 Q-Chem 4.3.0 for Intel X86 Linux

User input:
--------------------------------------------------------------
$comment
XAS calculation for the 2b valence excited for water using cvs-adc(2)-x + 6-311+G* basis set
job 1 - determination of HF orbitals
$end

$molecule
0 1
6  -0.492831  2.832508  -0.185347
9  0.639951  2.351306  -0.016639
9  -1.14136  3.178259  0.792045
9  -1.287268  1.020017  0.557248
9  -1.122574  2.53243  -1.216847
$end

$rem
jobtype      sp
sym_ignore true
exchange     hf
basis        6-31G*
unrestricted true
$end

--------------------------------------------------------------

    9    -435.4066261760      7.67E-06 Convergence criterion met
 Total energy in the final basis set = -435.4066261760
 Total job time:  2.53s(wall), 10.45s(cpu)
        *  Thank you very much for using Q-Chem.  Have a nice day.  *
 Q-Chem 4.3, Q-Chem, Inc., Pleasanton, CA (2015)
 Q-Chem 4.3.0 for Intel X86 Linux

User input:
--------------------------------------------------------------

$comment
job3 - cvs-adc(2) calculation
$end

$molecule
read
$end

$rem
mem_total 3000
mem_static 1500
sym_ignore true
scf_guess read
method cvs-adc(2)
basis 6-31G*
ee_singlets 20
cc_rest_occ 5                  !only excitations from the lowest N orbitals
unrestricted  true
max_scf_cycles 200
$end
--------------------------------------------------------------

             Standard Nuclear Orientation (Angstroms)
    I     Atom           X                Y                Z
 ----------------------------------------------------------------
    1      C      -0.4928310000     2.8325080000    -0.1853470000
    2      F       0.6399510000     2.3513060000    -0.0166390000
    3      F      -1.1413600000     3.1782590000     0.7920450000
    4      F      -1.2872680000     1.0200170000     0.5572480000
    5      F      -1.1225740000     2.5324300000    -1.2168470000
 ----------------------------------------------------------------

    6    -435.4066263803      8.67E-09 Convergence criterion met
 Total energy in the final basis set = -435.4066263803
  Term symbol:  2 (-) A                                     R^2 =  1.29345e-12
  Excitation energy:                                             293.887601 eV
  Term symbol:  3 (-) A                                     R^2 =  2.69962e-13
  Excitation energy:                                             295.716485 eV
  Term symbol:  4 (-) A                                     R^2 =  9.12907e-13
  Excitation energy:                                             303.713858 eV
  Term symbol:  5 (-) A                                     R^2 =  1.56833e-13
  Excitation energy:                                             304.634220 eV
  Term symbol:  6 (-) A                                     R^2 =  3.77464e-13
  Excitation energy:                                             305.161277 eV
  Term symbol:  7 (-) A                                     R^2 =  5.68925e-13
  Excitation energy:                                             305.785916 eV
  Term symbol:  8 (-) A                                     R^2 =  2.34641e-13
  Excitation energy:                                             306.759341 eV
  Term symbol:  9 (-) A                                     R^2 =  2.55672e-13
  Excitation energy:                                             307.224162 eV
  Term symbol:  10 (-) A                                    R^2 =  6.77177e-13
  Excitation energy:                                             312.001750 eV
  Excited state 10 (A)                                             [converged]
  Term symbol:  11 (-) A                                    R^2 =  2.06359e-13
  Excitation energy:                                             313.527122 eV
  Excited state 11 (A)                                             [converged]
  Term symbol:  12 (-) A                                    R^2 =  3.15319e-13
  Excitation energy:                                             314.333592 eV
  Excited state 12 (A)                                             [converged]
  Term symbol:  13 (-) A                                    R^2 =  4.49142e-13
  Excitation energy:                                             314.415001 eV
  Excited state 13 (A)                                             [converged]
  Term symbol:  14 (-) A                                    R^2 =  4.84512e-13
  Excitation energy:                                             314.808975 eV
  Excited state 14 (A)                                             [converged]
  Term symbol:  15 (-) A                                    R^2 =  5.71450e-13
  Excitation energy:                                             314.845471 eV
  Excited state 15 (A)                                             [converged]
  Term symbol:  16 (-) A                                    R^2 =  8.97223e-11
  Excitation energy:                                             320.121967 eV
  Excited state 16 (A)                                             [converged]
  Term symbol:  17 (-) A                                    R^2 =  1.06688e-11
  Excitation energy:                                             320.656202 eV
  Excited state 17 (A)                                         [not converged]
  Term symbol:  18 (-) A                                    R^2 =  5.41375e-02
  Excitation energy:                                             328.733395 eV
  Excited state 18 (A)                                         [not converged]
  Term symbol:  19 (-) A                                    R^2 =  1.24090e-04
  Excitation energy:                                             328.793725 eV
  Excited state 19 (A)                                         [not converged]
  Term symbol:  20 (-) A                                    R^2 =  1.17058e-04
  Excitation energy:                                             328.793796 eV
  Excited state 20 (A)                                         [not converged]
  Term symbol:  21 (-) A                                    R^2 =  1.04153e-01
  Excitation energy:                                             328.808842 eV

                    Orbital Energies (a.u.)
 --------------------------------------------------------------

 Alpha MOs
 -- Occupied --
-26.499 -26.492 -26.491 -26.018 -11.711  -1.909  -1.811  -1.804
 -1.287  -1.081  -0.992  -0.989  -0.928  -0.826  -0.823  -0.804
 -0.798  -0.777  -0.386  -0.385  -0.382

 Beta MOs
 -- Occupied --
-26.499 -26.492 -26.491 -26.018 -11.711  -1.909  -1.811  -1.804
 -1.287  -1.081  -0.992  -0.989  -0.928  -0.826  -0.823  -0.804
 -0.798  -0.777  -0.386  -0.385  -0.382

          Ground-State Mulliken Net Atomic Charges

     Atom                 Charge (a.u.)    Spin (a.u.)
  --------------------------------------------------------
      1 C                     1.223419       0.000000
      2 F                    -0.154003       0.000000
      3 F                    -0.108332       0.000000
      4 F                    -0.809588       0.000000
      5 F                    -0.151496       0.000000
  --------------------------------------------------------
  Sum of atomic charges =     0.000000

                    Cartesian Multipole Moments
 -----------------------------------------------------------------
    Charge (ESU x 10^10)
                 0.0000
    Dipole Moment (Debye)
         X       2.9812      Y       7.0193      Z      -2.7327
       Tot       8.1010
    Quadrupole Moments (Debye-Ang)
        XX     -28.2532     XY      -0.1307     YY       5.0222
        XZ       2.8278     YZ      -4.2596     ZZ     -24.0112

 Total job time:  2017.35s(wall), 3316.38s(cpu)
        *  Thank you very much for using Q-Chem.  Have a nice day.  *
