 Q-Chem 4.3, Q-Chem, Inc., Pleasanton, CA (2015)
 Q-Chem 4.3.0 for Intel X86 Linux

User input:
--------------------------------------------------------------
$comment
XAS calculation for the 2b valence excited for water using cvs-adc(2)-x + 6-311+G* basis set
job 1 - determination of HF orbitals
$end

$molecule
0 1
6  -0.510494  2.97669  -0.192063
9  0.547167  2.413288  -0.018741
9  -1.112806  3.375806  0.72387
9  -1.283678  0.567622  0.643968
9  -1.113631  2.669906  -1.211779
$end

$rem
jobtype      sp
sym_ignore true
exchange     hf
basis        6-31G*
unrestricted true
$end

--------------------------------------------------------------

   11    -435.3618537417      7.19E-06 Convergence criterion met
 Total energy in the final basis set = -435.3618537417
 Total job time:  3.00s(wall), 13.98s(cpu)
        *  Thank you very much for using Q-Chem.  Have a nice day.  *
 Q-Chem 4.3, Q-Chem, Inc., Pleasanton, CA (2015)
 Q-Chem 4.3.0 for Intel X86 Linux

User input:
--------------------------------------------------------------

$comment
job3 - cvs-adc(2) calculation
$end

$molecule
read
$end

$rem
mem_total 3000
mem_static 1500
sym_ignore true
scf_guess read
method cvs-adc(2)
basis 6-31G*
ee_singlets 20
cc_rest_occ 5                  !only excitations from the lowest N orbitals
unrestricted  true
max_scf_cycles 200
$end
--------------------------------------------------------------

             Standard Nuclear Orientation (Angstroms)
    I     Atom           X                Y                Z
 ----------------------------------------------------------------
    1      C      -0.5104940000     2.9766900000    -0.1920630000
    2      F       0.5471670000     2.4132880000    -0.0187410000
    3      F      -1.1128060000     3.3758060000     0.7238700000
    4      F      -1.2836780000     0.5676220000     0.6439680000
    5      F      -1.1136310000     2.6699060000    -1.2117790000
 ----------------------------------------------------------------

    7    -435.3618542434      5.33E-09 Convergence criterion met
 Total energy in the final basis set = -435.3618542434
  Term symbol:  2 (-) A                                     R^2 =  5.49346e-14
  Excitation energy:                                             294.049153 eV
  Term symbol:  3 (-) A                                     R^2 =  6.19126e-14
  Excitation energy:                                             295.900767 eV
  Term symbol:  4 (-) A                                     R^2 =  1.02924e-13
  Excitation energy:                                             304.513536 eV
  Term symbol:  5 (-) A                                     R^2 =  1.47372e-13
  Excitation energy:                                             305.351304 eV
  Term symbol:  6 (-) A                                     R^2 =  2.97481e-13
  Excitation energy:                                             306.255090 eV
  Term symbol:  7 (-) A                                     R^2 =  1.04851e-13
  Excitation energy:                                             306.864941 eV
  Term symbol:  8 (-) A                                     R^2 =  1.12923e-13
  Excitation energy:                                             307.464132 eV
  Term symbol:  9 (-) A                                     R^2 =  7.87238e-14
  Excitation energy:                                             308.879342 eV
  Term symbol:  10 (-) A                                    R^2 =  7.32721e-14
  Excitation energy:                                             312.458585 eV
  Excited state 10 (A)                                             [converged]
  Term symbol:  11 (-) A                                    R^2 =  1.30559e-13
  Excitation energy:                                             314.114883 eV
  Excited state 11 (A)                                             [converged]
  Term symbol:  12 (-) A                                    R^2 =  1.10819e-13
  Excitation energy:                                             314.284372 eV
  Excited state 12 (A)                                             [converged]
  Term symbol:  13 (-) A                                    R^2 =  8.59774e-14
  Excitation energy:                                             314.492409 eV
  Excited state 13 (A)                                             [converged]
  Term symbol:  14 (-) A                                    R^2 =  3.22708e-13
  Excitation energy:                                             314.691306 eV
  Excited state 14 (A)                                             [converged]
  Term symbol:  15 (-) A                                    R^2 =  2.41929e-13
  Excitation energy:                                             315.021767 eV
  Excited state 15 (A)                                             [converged]
  Term symbol:  16 (-) A                                    R^2 =  1.16313e-12
  Excitation energy:                                             317.835889 eV
  Excited state 16 (A)                                             [converged]
  Term symbol:  17 (-) A                                    R^2 =  3.37722e-12
  Excitation energy:                                             318.614665 eV
  Excited state 17 (A)                                             [converged]
  Term symbol:  18 (-) A                                    R^2 =  5.08021e-09
  Excitation energy:                                             331.683501 eV
  Excited state 18 (A)                                             [converged]
  Term symbol:  19 (-) A                                    R^2 =  1.05609e-08
  Excitation energy:                                             331.869852 eV
  Excited state 19 (A)                                         [not converged]
  Term symbol:  20 (-) A                                    R^2 =  2.52837e-04
  Excitation energy:                                             332.472477 eV
  Excited state 20 (A)                                         [not converged]
  Term symbol:  21 (-) A                                    R^2 =  5.49974e-04
  Excitation energy:                                             332.627400 eV

                    Orbital Energies (a.u.)
 --------------------------------------------------------------

 Alpha MOs
 -- Occupied --
-26.566 -26.537 -26.535 -25.946 -11.747  -1.995  -1.888  -1.855
 -1.206  -1.135  -1.058  -1.053  -1.001  -0.881  -0.879  -0.855
 -0.836  -0.821  -0.315  -0.315  -0.312

 Beta MOs
 -- Occupied --
-26.566 -26.537 -26.535 -25.946 -11.747  -1.995  -1.888  -1.855
 -1.206  -1.135  -1.058  -1.053  -1.001  -0.881  -0.879  -0.855
 -0.836  -0.821  -0.315  -0.315  -0.312

          Ground-State Mulliken Net Atomic Charges

     Atom                 Charge (a.u.)    Spin (a.u.)
  --------------------------------------------------------
      1 C                     1.110526       0.000000
      2 F                    -0.082117       0.000000
      3 F                    -0.030710       0.000000
      4 F                    -0.890083       0.000000
      5 F                    -0.107616       0.000000
  --------------------------------------------------------
  Sum of atomic charges =     0.000000

                    Cartesian Multipole Moments
 -----------------------------------------------------------------
    Charge (ESU x 10^10)
                 0.0000
    Dipole Moment (Debye)
         X       3.2840      Y      10.4390      Z      -3.3663
       Tot      11.4494
    Quadrupole Moments (Debye-Ang)
        XX     -28.3659     XY      -3.2403     YY      15.7817
        XZ       3.6152     YZ      -3.6944     ZZ     -24.1254

 Total job time:  1928.46s(wall), 3185.66s(cpu)
        *  Thank you very much for using Q-Chem.  Have a nice day.  *
