 Q-Chem 4.3, Q-Chem, Inc., Pleasanton, CA (2015)
 Q-Chem 4.3.0 for Intel X86 Linux

User input:
--------------------------------------------------------------
$comment
XAS calculation for the 2b valence excited for water using cvs-adc(2)-x + 6-311+G* basis set
job 1 - determination of HF orbitals
$end

$molecule
0 1
6  -0.335897  3.008684  -0.307881
9  0.806789  2.767664  -0.218592
9  -1.010973  3.293917  0.695802
9  -1.883112  0.073056  1.087811
9  -0.921832  2.832618  -1.372252
$end

$rem
jobtype      sp
sym_ignore true
exchange     hf
basis        6-31G*
unrestricted true
$end

--------------------------------------------------------------

   12    -435.3082621077      5.73E-06 Convergence criterion met
 Total energy in the final basis set = -435.3082621077
 Total job time:  3.15s(wall), 13.97s(cpu)
        *  Thank you very much for using Q-Chem.  Have a nice day.  *
 Q-Chem 4.3, Q-Chem, Inc., Pleasanton, CA (2015)
 Q-Chem 4.3.0 for Intel X86 Linux

User input:
--------------------------------------------------------------

$comment
job3 - cvs-adc(2) calculation
$end

$molecule
read
$end

$rem
mem_total 3000
mem_static 1500
sym_ignore true
scf_guess read
method cvs-adc(2)
basis 6-31G*
ee_singlets 20
cc_rest_occ 5                  !only excitations from the lowest N orbitals
unrestricted  true
max_scf_cycles 200
$end
--------------------------------------------------------------

             Standard Nuclear Orientation (Angstroms)
    I     Atom           X                Y                Z
 ----------------------------------------------------------------
    1      C      -0.3358970000     3.0086840000    -0.3078810000
    2      F       0.8067890000     2.7676640000    -0.2185920000
    3      F      -1.0109730000     3.2939170000     0.6958020000
    4      F      -1.8831120000     0.0730560000     1.0878110000
    5      F      -0.9218320000     2.8326180000    -1.3722520000
 ----------------------------------------------------------------

    8    -435.3082622095      3.93E-09 Convergence criterion met
 Total energy in the final basis set = -435.3082622095
  Term symbol:  2 (-) A                                     R^2 =  3.79387e-04
  Excitation energy:                                             294.536722 eV
  Term symbol:  3 (-) A                                     R^2 =  4.11708e-04
  Excitation energy:                                             296.436936 eV
  Term symbol:  4 (-) A                                     R^2 =  2.88657e-04
  Excitation energy:                                             302.964174 eV
  Term symbol:  5 (-) A                                     R^2 =  2.59152e-04
  Excitation energy:                                             304.564825 eV
  Term symbol:  6 (-) A                                     R^2 =  2.25832e-04
  Excitation energy:                                             305.169010 eV
  Term symbol:  7 (-) A                                     R^2 =  1.54054e-04
  Excitation energy:                                             306.715385 eV
  Term symbol:  8 (-) A                                     R^2 =  7.16668e-05
  Excitation energy:                                             307.367735 eV
  Term symbol:  9 (-) A                                     R^2 =  2.44234e-06
  Excitation energy:                                             308.778627 eV
  Term symbol:  10 (-) A                                    R^2 =  4.59317e-04
  Excitation energy:                                             313.040284 eV
  Excited state 10 (A)                                         [not converged]
  Term symbol:  11 (-) A                                    R^2 =  4.30902e-04
  Excitation energy:                                             314.262861 eV
  Excited state 11 (A)                                         [not converged]
  Term symbol:  12 (-) A                                    R^2 =  2.25882e-05
  Excitation energy:                                             314.557052 eV
  Excited state 12 (A)                                         [not converged]
  Term symbol:  13 (-) A                                    R^2 =  2.21209e-04
  Excitation energy:                                             314.879021 eV
  Excited state 13 (A)                                         [not converged]
  Term symbol:  14 (-) A                                    R^2 =  2.31926e-04
  Excitation energy:                                             315.101459 eV
  Excited state 14 (A)                                         [not converged]
  Term symbol:  15 (-) A                                    R^2 =  2.14773e-04
  Excitation energy:                                             315.302990 eV
  Excited state 15 (A)                                         [not converged]
  Term symbol:  16 (-) A                                    R^2 =  2.04949e-06
  Excitation energy:                                             315.471755 eV
  Excited state 16 (A)                                         [not converged]
  Term symbol:  17 (-) A                                    R^2 =  3.36001e-04
  Excitation energy:                                             316.214081 eV
  Excited state 17 (A)                                         [not converged]
  Term symbol:  18 (-) A                                    R^2 =  6.44735e-02
  Excitation energy:                                             325.251324 eV
  Excited state 18 (A)                                         [not converged]
  Term symbol:  19 (-) A                                    R^2 =  1.90855e-01
  Excitation energy:                                             325.660925 eV
  Excited state 19 (A)                                         [not converged]
  Term symbol:  20 (-) A                                    R^2 =  2.84058e-01
  Excitation energy:                                             325.913781 eV
  Excited state 20 (A)                                         [not converged]
  Term symbol:  21 (-) A                                    R^2 =  2.65354e-01
  Excitation energy:                                             331.291779 eV

                    Orbital Energies (a.u.)
 --------------------------------------------------------------

 Alpha MOs
 -- Occupied --
-26.627 -26.596 -26.583 -25.868 -11.804  -2.043  -1.936  -1.898
 -1.188  -1.133  -1.105  -1.098  -1.052  -0.931  -0.926  -0.914
 -0.886  -0.873  -0.244  -0.244  -0.239

 Beta MOs
 -- Occupied --
-26.627 -26.596 -26.583 -25.868 -11.804  -2.043  -1.936  -1.898
 -1.188  -1.133  -1.105  -1.098  -1.052  -0.931  -0.926  -0.914
 -0.886  -0.873  -0.244  -0.244  -0.239

          Ground-State Mulliken Net Atomic Charges

     Atom                 Charge (a.u.)    Spin (a.u.)
  --------------------------------------------------------
      1 C                     1.209989       0.000000
      2 F                    -0.039181       0.000000
      3 F                    -0.102448       0.000000
      4 F                    -0.962486       0.000000
      5 F                    -0.105874       0.000000
  --------------------------------------------------------
  Sum of atomic charges =     0.000000

                    Cartesian Multipole Moments
 -----------------------------------------------------------------
    Charge (ESU x 10^10)
                 0.0000
    Dipole Moment (Debye)
         X       7.2486      Y      13.3250      Z      -6.3046
       Tot      16.4269
    Quadrupole Moments (Debye-Ang)
        XX     -37.9057     XY      -3.2792     YY      19.0200
        XZ       9.6672     YZ      -4.5418     ZZ     -27.3536

 Total job time:  2068.36s(wall), 3447.42s(cpu)
        *  Thank you very much for using Q-Chem.  Have a nice day.  *
