 Q-Chem 4.3, Q-Chem, Inc., Pleasanton, CA (2015)
 Q-Chem 4.3.0 for Intel X86 Linux

User input:
--------------------------------------------------------------
$comment
XAS calculation for the 2b valence excited for water using cvs-adc(2)-x + 6-311+G* basis set
job 1 - determination of HF orbitals
$end

$molecule
0 1
6  -0.380866  3.181105  -0.360786
9  0.694942  2.636915  -0.124505
9  -1.025241  3.50991  0.662082
9  -1.663869  -0.135986  1.004282
9  -0.998725  2.863941  -1.312458
$end

$rem
jobtype      sp
sym_ignore true
exchange     hf
basis        6-31G*
unrestricted true
$end

--------------------------------------------------------------

   15    -435.2742633445      4.48E-06 Convergence criterion met
 Total energy in the final basis set = -435.2742633445
 Total job time:  336.99s(wall), 17.70s(cpu)
        *  Thank you very much for using Q-Chem.  Have a nice day.  *
 Q-Chem 4.3, Q-Chem, Inc., Pleasanton, CA (2015)
 Q-Chem 4.3.0 for Intel X86 Linux

User input:
--------------------------------------------------------------

$comment
job3 - cvs-adc(2) calculation
$end

$molecule
read
$end

$rem
mem_total 3000
mem_static 1500
sym_ignore true
scf_guess read
method cvs-adc(2)
basis 6-31G*
ee_singlets 20
cc_rest_occ 5                  !only excitations from the lowest N orbitals
unrestricted  true
max_scf_cycles 200
$end
--------------------------------------------------------------

             Standard Nuclear Orientation (Angstroms)
    I     Atom           X                Y                Z
 ----------------------------------------------------------------
    1      C      -0.3808660000     3.1811050000    -0.3607860000
    2      F       0.6949420000     2.6369150000    -0.1245050000
    3      F      -1.0252410000     3.5099100000     0.6620820000
    4      F      -1.6638690000    -0.1359860000     1.0042820000
    5      F      -0.9987250000     2.8639410000    -1.3124580000
 ----------------------------------------------------------------

   11    -435.2742630768      4.11E-09 Convergence criterion met
 Total energy in the final basis set = -435.2742630768
  Term symbol:  2 (-) A                                     R^2 =  5.00241e-07
  Excitation energy:                                             293.579930 eV
  Term symbol:  3 (-) A                                     R^2 =  2.29630e-06
  Excitation energy:                                             295.436822 eV
  Term symbol:  4 (-) A                                     R^2 =  2.73049e-07
  Excitation energy:                                             303.974251 eV
  Term symbol:  5 (-) A                                     R^2 =  1.88492e-07
  Excitation energy:                                             304.536021 eV
  Term symbol:  6 (-) A                                     R^2 =  3.17393e-07
  Excitation energy:                                             305.848694 eV
  Term symbol:  7 (-) A                                     R^2 =  1.63943e-06
  Excitation energy:                                             306.312685 eV
  Term symbol:  8 (-) A                                     R^2 =  1.78196e-07
  Excitation energy:                                             306.546060 eV
  Term symbol:  9 (-) A                                     R^2 =  1.02696e-06
  Excitation energy:                                             308.271570 eV
  Term symbol:  10 (-) A                                    R^2 =  3.35181e-06
  Excitation energy:                                             312.887190 eV
  Excited state 10 (A)                                             [converged]
  Term symbol:  11 (-) A                                    R^2 =  3.11816e-07
  Excitation energy:                                             314.221872 eV
  Excited state 11 (A)                                             [converged]
  Term symbol:  12 (-) A                                    R^2 =  3.64051e-07
  Excitation energy:                                             314.385653 eV
  Excited state 12 (A)                                             [converged]
  Term symbol:  13 (-) A                                    R^2 =  2.56344e-07
  Excitation energy:                                             314.605980 eV
  Excited state 13 (A)                                             [converged]
  Term symbol:  14 (-) A                                    R^2 =  1.29475e-07
  Excitation energy:                                             314.817324 eV
  Excited state 14 (A)                                         [not converged]
  Term symbol:  15 (-) A                                    R^2 =  1.16551e-06
  Excitation energy:                                             315.152176 eV
  Excited state 15 (A)                                             [converged]
  Term symbol:  16 (-) A                                    R^2 =  8.87070e-07
  Excitation energy:                                             315.253952 eV
  Excited state 16 (A)                                             [converged]
  Term symbol:  17 (-) A                                    R^2 =  2.17342e-07
  Excitation energy:                                             316.256273 eV
  Excited state 17 (A)                                         [not converged]
  Term symbol:  18 (-) A                                    R^2 =  5.25909e-05
  Excitation energy:                                             321.224877 eV
  Excited state 18 (A)                                         [not converged]
  Term symbol:  19 (-) A                                    R^2 =  1.71966e-04
  Excitation energy:                                             321.225866 eV
  Excited state 19 (A)                                         [not converged]
  Term symbol:  20 (-) A                                    R^2 =  1.58489e-05
  Excitation energy:                                             321.230292 eV
  Excited state 20 (A)                                         [not converged]
  Term symbol:  21 (-) A                                    R^2 =  2.70444e-05
  Excitation energy:                                             321.230295 eV

                    Orbital Energies (a.u.)
 --------------------------------------------------------------

 Alpha MOs
 -- Occupied --
-26.631 -26.605 -26.590 -25.844 -11.816  -2.046  -1.941  -1.899
 -1.193  -1.112  -1.109  -1.101  -1.055  -0.937  -0.931  -0.913
 -0.890  -0.877  -0.223  -0.223  -0.223

 Beta MOs
 -- Occupied --
-26.631 -26.605 -26.590 -25.844 -11.816  -2.046  -1.941  -1.899
 -1.193  -1.112  -1.109  -1.101  -1.055  -0.937  -0.931  -0.913
 -0.890  -0.877  -0.223  -0.223  -0.223

          Ground-State Mulliken Net Atomic Charges

     Atom                 Charge (a.u.)    Spin (a.u.)
  --------------------------------------------------------
      1 C                     1.212694       0.000000
      2 F                    -0.087695       0.000000
      3 F                    -0.112180       0.000000
      4 F                    -0.988332       0.000000
      5 F                    -0.024487       0.000000
  --------------------------------------------------------
  Sum of atomic charges =     0.000000

                    Cartesian Multipole Moments
 -----------------------------------------------------------------
    Charge (ESU x 10^10)
                 0.0000
    Dipole Moment (Debye)
         X       5.9917      Y      15.5787      Z      -6.7088
       Tot      17.9891
    Quadrupole Moments (Debye-Ang)
        XX     -34.5258     XY      -6.5804     YY      25.7137
        XZ       8.6883     YZ      -5.9320     ZZ     -26.0642

 Total job time:  1934.22s(wall), 3140.54s(cpu)
        *  Thank you very much for using Q-Chem.  Have a nice day.  *
