 Q-Chem 4.3, Q-Chem, Inc., Pleasanton, CA (2015)
 Q-Chem 4.3.0 for Intel X86 Linux

User input:
--------------------------------------------------------------
$comment
XAS calculation for the 2b valence excited for water using cvs-adc(2)-x + 6-311+G* basis set
job 1 - determination of HF orbitals
$end

$molecule
0 1
6  -0.69934  2.34967  0.0
9  0.672853  2.34967  -0.0
9  -1.13316  3.29245  0.78541
9  -1.13317  1.1981  0.42375
9  -1.13317  2.55847  -1.20916
$end

$rem
jobtype      sp
sym_ignore true
exchange     hf
basis        6-31G*
unrestricted true
$end

--------------------------------------------------------------

    8    -435.6409592794      3.72E-06 Convergence criterion met
 Total energy in the final basis set = -435.6409592794
 Total job time:  2.33s(wall), 10.25s(cpu)
        *  Thank you very much for using Q-Chem.  Have a nice day.  *
 Q-Chem 4.3, Q-Chem, Inc., Pleasanton, CA (2015)
 Q-Chem 4.3.0 for Intel X86 Linux

User input:
--------------------------------------------------------------

$comment
job3 - cvs-adc(2) calculation
$end

$molecule
read
$end

$rem
mem_total 3000
mem_static 1500
sym_ignore true
scf_guess read
method cvs-adc(2)
basis 6-31G*
ee_singlets 20
cc_rest_occ 5                  !only excitations from the lowest N orbitals
unrestricted  true
max_scf_cycles 200
$end
--------------------------------------------------------------

             Standard Nuclear Orientation (Angstroms)
    I     Atom           X                Y                Z
 ----------------------------------------------------------------
    1      C      -0.6993400000     2.3496700000     0.0000000000
    2      F       0.6728530000     2.3496700000     0.0000000000
    3      F      -1.1331600000     3.2924500000     0.7854100000
    4      F      -1.1331700000     1.1981000000     0.4237500000
    5      F      -1.1331700000     2.5584700000    -1.2091600000
 ----------------------------------------------------------------

    5    -435.6409594105      4.82E-09 Convergence criterion met
 Total energy in the final basis set = -435.6409594105
  Term symbol:  2 (-) A                                     R^2 =  1.03893e-13
  Excitation energy:                                             300.352951 eV
  Term symbol:  3 (-) A                                     R^2 =  6.64384e-14
  Excitation energy:                                             301.616077 eV
  Term symbol:  4 (-) A                                     R^2 =  5.05005e-14
  Excitation energy:                                             301.616139 eV
  Term symbol:  5 (-) A                                     R^2 =  6.78515e-14
  Excitation energy:                                             302.535412 eV
  Term symbol:  6 (-) A                                     R^2 =  9.14193e-14
  Excitation energy:                                             303.553598 eV
  Term symbol:  7 (-) A                                     R^2 =  5.41767e-14
  Excitation energy:                                             303.730497 eV
  Term symbol:  8 (-) A                                     R^2 =  3.89617e-14
  Excitation energy:                                             303.730554 eV
  Term symbol:  9 (-) A                                     R^2 =  8.52291e-14
  Excitation energy:                                             306.166827 eV
  Term symbol:  10 (-) A                                    R^2 =  4.22111e-14
  Excitation energy:                                             313.524808 eV
  Excited state 10 (A)                                             [converged]
  Term symbol:  11 (-) A                                    R^2 =  1.94896e-13
  Excitation energy:                                             313.750503 eV
  Excited state 11 (A)                                             [converged]
  Term symbol:  12 (-) A                                    R^2 =  1.81196e-13
  Excitation energy:                                             313.750531 eV
  Excited state 12 (A)                                             [converged]
  Term symbol:  13 (-) A                                    R^2 =  8.20890e-13
  Excitation energy:                                             314.049465 eV
  Excited state 13 (A)                                             [converged]
  Term symbol:  14 (-) A                                    R^2 =  5.37177e-13
  Excitation energy:                                             314.093602 eV
  Excited state 14 (A)                                             [converged]
  Term symbol:  15 (-) A                                    R^2 =  2.33279e-13
  Excitation energy:                                             314.182070 eV
  Excited state 15 (A)                                             [converged]
  Term symbol:  16 (-) A                                    R^2 =  1.91341e-13
  Excitation energy:                                             314.182085 eV
  Excited state 16 (A)                                             [converged]
  Term symbol:  17 (-) A                                    R^2 =  1.06111e-13
  Excitation energy:                                             314.567971 eV
  Excited state 17 (A)                                             [converged]
  Term symbol:  18 (-) A                                    R^2 =  5.60233e-07
  Excitation energy:                                             330.144440 eV
  Excited state 18 (A)                                             [converged]
  Term symbol:  19 (-) A                                    R^2 =  5.21793e-07
  Excitation energy:                                             330.144486 eV
  Excited state 19 (A)                                             [converged]
  Term symbol:  20 (-) A                                    R^2 =  2.63833e-07
  Excitation energy:                                             330.169729 eV
  Excited state 20 (A)                                             [converged]
  Term symbol:  21 (-) A                                    R^2 =  2.72811e-07
  Excitation energy:                                             330.169777 eV

                    Orbital Energies (a.u.)
 --------------------------------------------------------------

 Alpha MOs
 -- Occupied --
-26.382 -26.382 -26.382 -26.362 -11.613  -1.805  -1.684  -1.684
 -1.651  -1.005  -0.886  -0.886  -0.879  -0.756  -0.756  -0.706
 -0.706  -0.693  -0.679  -0.671  -0.671

 Beta MOs
 -- Occupied --
-26.382 -26.382 -26.382 -26.362 -11.613  -1.805  -1.684  -1.684
 -1.651  -1.005  -0.886  -0.886  -0.879  -0.756  -0.756  -0.706
 -0.706  -0.693  -0.679  -0.671  -0.671

          Ground-State Mulliken Net Atomic Charges

     Atom                 Charge (a.u.)    Spin (a.u.)
  --------------------------------------------------------
      1 C                     1.339208       0.000000
      2 F                    -0.377041       0.000000
      3 F                    -0.320728       0.000000
      4 F                    -0.320721       0.000000
      5 F                    -0.320718       0.000000
  --------------------------------------------------------
  Sum of atomic charges =     0.000000

                    Cartesian Multipole Moments
 -----------------------------------------------------------------
    Charge (ESU x 10^10)
                 0.0000
    Dipole Moment (Debye)
         X      -0.3086      Y       0.0000      Z       0.0000
       Tot       0.3086
    Quadrupole Moments (Debye-Ang)
        XX     -24.9161     XY      -0.7250     YY     -24.8776
        XZ       0.0000     YZ      -0.0001     ZZ     -24.8774

 Total job time:  1621.91s(wall), 2689.73s(cpu)
        *  Thank you very much for using Q-Chem.  Have a nice day.  *
