 Q-Chem 4.3, Q-Chem, Inc., Pleasanton, CA (2015)
 Q-Chem 4.3.0 for Intel X86 Linux

User input:
--------------------------------------------------------------
$comment
XAS calculation for the 2b valence excited for water using cvs-adc(2)-x + 6-311+G* basis set
job 1 - determination of HF orbitals
$end

$molecule
0 1
6  -0.536835  2.957895  -0.172466
9  0.562183  2.423568  -0.022706
9  -1.105177  3.393155  0.714901
9  -1.292131  0.535472  0.655211
9  -1.110834  2.685731  -1.223134
$end

$rem
jobtype      sp
sym_ignore true
exchange     hf
basis        6-31G*
unrestricted true
$end

--------------------------------------------------------------

   11    -435.3668544700      9.33E-06 Convergence criterion met
 Total energy in the final basis set = -435.3668544700
 Total job time:  2.95s(wall), 13.64s(cpu)
        *  Thank you very much for using Q-Chem.  Have a nice day.  *
 Q-Chem 4.3, Q-Chem, Inc., Pleasanton, CA (2015)
 Q-Chem 4.3.0 for Intel X86 Linux

User input:
--------------------------------------------------------------

$comment
job3 - cvs-adc(2) calculation
$end

$molecule
read
$end

$rem
mem_total 3000
mem_static 1500
sym_ignore true
scf_guess read
method cvs-adc(2)
basis 6-31G*
ee_singlets 20
cc_rest_occ 5                  !only excitations from the lowest N orbitals
unrestricted  true
max_scf_cycles 200
$end
--------------------------------------------------------------

             Standard Nuclear Orientation (Angstroms)
    I     Atom           X                Y                Z
 ----------------------------------------------------------------
    1      C      -0.5368350000     2.9578950000    -0.1724660000
    2      F       0.5621830000     2.4235680000    -0.0227060000
    3      F      -1.1051770000     3.3931550000     0.7149010000
    4      F      -1.2921310000     0.5354720000     0.6552110000
    5      F      -1.1108340000     2.6857310000    -1.2231340000
 ----------------------------------------------------------------

    7    -435.3668546295      3.84E-09 Convergence criterion met
 Total energy in the final basis set = -435.3668546295
  Term symbol:  2 (-) A                                     R^2 =  8.75714e-14
  Excitation energy:                                             294.439413 eV
  Term symbol:  3 (-) A                                     R^2 =  3.60085e-13
  Excitation energy:                                             296.315331 eV
  Term symbol:  4 (-) A                                     R^2 =  5.66171e-14
  Excitation energy:                                             303.975500 eV
  Term symbol:  5 (-) A                                     R^2 =  3.09018e-13
  Excitation energy:                                             305.067408 eV
  Term symbol:  6 (-) A                                     R^2 =  8.21522e-14
  Excitation energy:                                             305.695698 eV
  Term symbol:  7 (-) A                                     R^2 =  7.53994e-13
  Excitation energy:                                             307.259858 eV
  Term symbol:  8 (-) A                                     R^2 =  8.36038e-14
  Excitation energy:                                             307.703291 eV
  Term symbol:  9 (-) A                                     R^2 =  8.80711e-14
  Excitation energy:                                             309.604079 eV
  Term symbol:  10 (-) A                                    R^2 =  1.13044e-13
  Excitation energy:                                             312.633928 eV
  Excited state 10 (A)                                             [converged]
  Term symbol:  11 (-) A                                    R^2 =  7.77462e-14
  Excitation energy:                                             314.212974 eV
  Excited state 11 (A)                                             [converged]
  Term symbol:  12 (-) A                                    R^2 =  1.20501e-13
  Excitation energy:                                             314.430636 eV
  Excited state 12 (A)                                             [converged]
  Term symbol:  13 (-) A                                    R^2 =  6.09992e-14
  Excitation energy:                                             314.783665 eV
  Excited state 13 (A)                                             [converged]
  Term symbol:  14 (-) A                                    R^2 =  1.18573e-13
  Excitation energy:                                             314.783960 eV
  Excited state 14 (A)                                             [converged]
  Term symbol:  15 (-) A                                    R^2 =  7.84448e-14
  Excitation energy:                                             315.389890 eV
  Excited state 15 (A)                                             [converged]
  Term symbol:  16 (-) A                                    R^2 =  2.79162e-13
  Excitation energy:                                             317.684309 eV
  Excited state 16 (A)                                             [converged]
  Term symbol:  17 (-) A                                    R^2 =  1.31324e-11
  Excitation energy:                                             318.539437 eV
  Excited state 17 (A)                                             [converged]
  Term symbol:  18 (-) A                                    R^2 =  7.61916e-10
  Excitation energy:                                             331.256128 eV
  Excited state 18 (A)                                             [converged]
  Term symbol:  19 (-) A                                    R^2 =  2.17954e-09
  Excitation energy:                                             331.457024 eV
  Excited state 19 (A)                                         [not converged]
  Term symbol:  20 (-) A                                    R^2 =  1.85498e-04
  Excitation energy:                                             332.650144 eV
  Excited state 20 (A)                                         [not converged]
  Term symbol:  21 (-) A                                    R^2 =  2.54565e-04
  Excitation energy:                                             332.766889 eV

                    Orbital Energies (a.u.)
 --------------------------------------------------------------

 Alpha MOs
 -- Occupied --
-26.580 -26.534 -26.527 -25.954 -11.747  -2.011  -1.891  -1.844
 -1.211  -1.142  -1.060  -1.057  -1.008  -0.881  -0.879  -0.862
 -0.832  -0.819  -0.321  -0.321  -0.315

 Beta MOs
 -- Occupied --
-26.580 -26.534 -26.527 -25.954 -11.747  -2.011  -1.891  -1.844
 -1.211  -1.142  -1.060  -1.057  -1.008  -0.881  -0.879  -0.862
 -0.832  -0.819  -0.321  -0.321  -0.315

          Ground-State Mulliken Net Atomic Charges

     Atom                 Charge (a.u.)    Spin (a.u.)
  --------------------------------------------------------
      1 C                     1.104326       0.000000
      2 F                    -0.113900       0.000000
      3 F                     0.003624       0.000000
      4 F                    -0.876396       0.000000
      5 F                    -0.117654       0.000000
  --------------------------------------------------------
  Sum of atomic charges =     0.000000

                    Cartesian Multipole Moments
 -----------------------------------------------------------------
    Charge (ESU x 10^10)
                 0.0000
    Dipole Moment (Debye)
         X       3.0094      Y      10.4284      Z      -3.1679
       Tot      11.3068
    Quadrupole Moments (Debye-Ang)
        XX     -28.1929     XY      -4.1430     YY      15.3952
        XZ       3.5233     YZ      -2.9332     ZZ     -24.1926

 Total job time:  1966.48s(wall), 3244.88s(cpu)
        *  Thank you very much for using Q-Chem.  Have a nice day.  *
