 Q-Chem 4.3, Q-Chem, Inc., Pleasanton, CA (2015)
 Q-Chem 4.3.0 for Intel X86 Linux

User input:
--------------------------------------------------------------
$comment
XAS calculation for the 2b valence excited for water using cvs-adc(2)-x + 6-311+G* basis set
job 1 - determination of HF orbitals
$end

$molecule
0 1
6  -0.534051  2.700599  -0.194588
9  0.823468  2.794579  -0.2044
9  -1.034775  3.150526  0.705845
9  -1.76829  0.523953  0.935869
9  -0.946734  2.771371  -1.31279
$end

$rem
jobtype      sp
sym_ignore true
exchange     hf
basis        6-31G*
unrestricted true
$end

--------------------------------------------------------------

   11    -435.3424758811      8.00E-06 Convergence criterion met
 Total energy in the final basis set = -435.3424758811

                    Orbital Energies (a.u.)
 --------------------------------------------------------------

 Alpha MOs
 -- Occupied --
-26.565 -26.547 -26.480 -26.037 -11.741  -2.006  -1.905  -1.768
 -1.274  -1.135  -1.059  -1.033  -0.998  -0.887  -0.863  -0.834
 -0.799  -0.790  -0.387  -0.387  -0.350

 Beta MOs
 -- Occupied --
-26.565 -26.547 -26.480 -26.037 -11.741  -2.006  -1.905  -1.768
 -1.274  -1.135  -1.059  -1.033  -0.998  -0.887  -0.863  -0.834
 -0.799  -0.790  -0.387  -0.387  -0.350

          Ground-State Mulliken Net Atomic Charges

     Atom                 Charge (a.u.)    Spin (a.u.)
  --------------------------------------------------------
      1 C                     1.068386       0.000000
      2 F                    -0.277248       0.000000
      3 F                     0.039331       0.000000
      4 F                    -0.742049       0.000000
      5 F                    -0.088420       0.000000
  --------------------------------------------------------
  Sum of atomic charges =     0.000000

                    Cartesian Multipole Moments
 -----------------------------------------------------------------
    Charge (ESU x 10^10)
                 0.0000
    Dipole Moment (Debye)
         X       3.3460      Y       7.6833      Z      -3.6602
       Tot       9.1447
    Quadrupole Moments (Debye-Ang)
        XX     -32.6122     XY      -4.4935     YY       2.6798
        XZ       5.9332     YZ      -2.8128     ZZ     -25.4386

 Total job time:  2.95s(wall), 13.45s(cpu)
        *  Thank you very much for using Q-Chem.  Have a nice day.  *
 Q-Chem 4.3, Q-Chem, Inc., Pleasanton, CA (2015)
 Q-Chem 4.3.0 for Intel X86 Linux

User input:
--------------------------------------------------------------

$comment
job3 - cvs-adc(2) calculation
$end

$molecule
read
$end

$rem
mem_total 3000
mem_static 1500
sym_ignore true
scf_guess read
method cvs-adc(2)
basis 6-31G*
ee_singlets 20
cc_rest_occ 5                  !only excitations from the lowest N orbitals
unrestricted  true
max_scf_cycles 200
$end
--------------------------------------------------------------

             Standard Nuclear Orientation (Angstroms)
    I     Atom           X                Y                Z
 ----------------------------------------------------------------
    1      C      -0.5340510000     2.7005990000    -0.1945880000
    2      F       0.8234680000     2.7945790000    -0.2044000000
    3      F      -1.0347750000     3.1505260000     0.7058450000
    4      F      -1.7682900000     0.5239530000     0.9358690000
    5      F      -0.9467340000     2.7713710000    -1.3127900000
 ----------------------------------------------------------------

    9    -435.3424763403      1.25E-09 Convergence criterion met
 Total energy in the final basis set = -435.3424763403
