 Q-Chem 4.3, Q-Chem, Inc., Pleasanton, CA (2015)
 Q-Chem 4.3.0 for Intel X86 Linux

User input:
--------------------------------------------------------------
$comment
XAS calculation for the 2b valence excited for water using cvs-adc(2)-x + 6-311+G* basis set
job 1 - determination of HF orbitals
$end

$molecule
0 1
6  -0.334839  3.196303  -0.335125
9  0.83964  2.774926  -0.225527
9  -0.988334  3.271371  0.667469
9  -1.948559  -0.034579  1.145945
9  -0.911838  2.836095  -1.377954
$end

$rem
jobtype      sp
sym_ignore true
exchange     hf
basis        6-31G*
unrestricted true
$end

--------------------------------------------------------------

   13    -435.2669216700      5.53E-06 Convergence criterion met
 Total energy in the final basis set = -435.2669216700
 Total job time:  3.38s(wall), 15.22s(cpu)
        *  Thank you very much for using Q-Chem.  Have a nice day.  *
 Q-Chem 4.3, Q-Chem, Inc., Pleasanton, CA (2015)
 Q-Chem 4.3.0 for Intel X86 Linux

User input:
--------------------------------------------------------------

$comment
job3 - cvs-adc(2) calculation
$end

$molecule
read
$end

$rem
mem_total 3000
mem_static 1500
sym_ignore true
scf_guess read
method cvs-adc(2)
basis 6-31G*
ee_singlets 20
cc_rest_occ 5                  !only excitations from the lowest N orbitals
unrestricted  true
max_scf_cycles 200
$end
--------------------------------------------------------------

             Standard Nuclear Orientation (Angstroms)
    I     Atom           X                Y                Z
 ----------------------------------------------------------------
    1      C      -0.3348390000     3.1963030000    -0.3351250000
    2      F       0.8396400000     2.7749260000    -0.2255270000
    3      F      -0.9883340000     3.2713710000     0.6674690000
    4      F      -1.9485590000    -0.0345790000     1.1459450000
    5      F      -0.9118380000     2.8360950000    -1.3779540000
 ----------------------------------------------------------------

    9    -435.2669216698      5.57E-09 Convergence criterion met
 Total energy in the final basis set = -435.2669216698
  Term symbol:  2 (-) A                                     R^2 =  1.25619e-12
  Excitation energy:                                             293.304665 eV
  Term symbol:  3 (-) A                                     R^2 =  2.52819e-12
  Excitation energy:                                             295.163426 eV
  Term symbol:  4 (-) A                                     R^2 =  4.79251e-12
  Excitation energy:                                             303.888321 eV
  Term symbol:  5 (-) A                                     R^2 =  1.69609e-12
  Excitation energy:                                             304.195978 eV
  Term symbol:  6 (-) A                                     R^2 =  4.19605e-13
  Excitation energy:                                             305.676940 eV
  Term symbol:  7 (-) A                                     R^2 =  5.50004e-12
  Excitation energy:                                             305.817064 eV
  Term symbol:  8 (-) A                                     R^2 =  1.08272e-12
  Excitation energy:                                             306.252483 eV
  Term symbol:  9 (-) A                                     R^2 =  1.23587e-12
  Excitation energy:                                             307.612622 eV
  Term symbol:  10 (-) A                                    R^2 =  4.96874e-12
  Excitation energy:                                             312.952591 eV
  Excited state 10 (A)                                             [converged]
  Term symbol:  11 (-) A                                    R^2 =  1.43325e-12
  Excitation energy:                                             314.262842 eV
  Excited state 11 (A)                                             [converged]
  Term symbol:  12 (-) A                                    R^2 =  1.84803e-12
  Excitation energy:                                             314.510871 eV
  Excited state 12 (A)                                             [converged]
  Term symbol:  13 (-) A                                    R^2 =  1.42586e-12
  Excitation energy:                                             314.576603 eV
  Excited state 13 (A)                                             [converged]
  Term symbol:  14 (-) A                                    R^2 =  4.22701e-12
  Excitation energy:                                             314.957332 eV
  Excited state 14 (A)                                             [converged]
  Term symbol:  15 (-) A                                    R^2 =  3.19034e-12
  Excitation energy:                                             315.080242 eV
  Excited state 15 (A)                                             [converged]
  Term symbol:  16 (-) A                                    R^2 =  1.31360e-12
  Excitation energy:                                             315.278333 eV
  Excited state 16 (A)                                             [converged]
  Term symbol:  17 (-) A                                    R^2 =  3.73854e-12
  Excitation energy:                                             316.235932 eV
  Excited state 17 (A)                                         [not converged]
  Term symbol:  18 (-) A                                    R^2 =  3.18985e-01
  Excitation energy:                                             321.047451 eV
  Excited state 18 (A)                                         [not converged]
  Term symbol:  19 (-) A                                    R^2 =  3.52786e-01
  Excitation energy:                                             321.307968 eV
  Excited state 19 (A)                                         [not converged]
  Term symbol:  20 (-) A                                    R^2 =  1.46277e-05
  Excitation energy:                                             332.401676 eV
  Excited state 20 (A)                                         [not converged]
  Term symbol:  21 (-) A                                    R^2 =  3.08029e-05
  Excitation energy:                                             332.559283 eV

                    Orbital Energies (a.u.)
 --------------------------------------------------------------

 Alpha MOs
 -- Occupied --
-26.622 -26.606 -26.606 -25.837 -11.824  -2.033  -1.930  -1.906
 -1.190  -1.107  -1.101  -1.099  -1.047  -0.937  -0.930  -0.906
 -0.899  -0.883  -0.218  -0.217  -0.217

 Beta MOs
 -- Occupied --
-26.622 -26.606 -26.606 -25.837 -11.824  -2.033  -1.930  -1.906
 -1.190  -1.107  -1.101  -1.099  -1.047  -0.937  -0.930  -0.906
 -0.899  -0.883  -0.218  -0.217  -0.217

          Ground-State Mulliken Net Atomic Charges

     Atom                 Charge (a.u.)    Spin (a.u.)
  --------------------------------------------------------
      1 C                     1.242213       0.000000
      2 F                    -0.119208       0.000000
      3 F                    -0.025654       0.000000
      4 F                    -0.994184       0.000000
      5 F                    -0.103166       0.000000
  --------------------------------------------------------
  Sum of atomic charges =     0.000000

                    Cartesian Multipole Moments
 -----------------------------------------------------------------
    Charge (ESU x 10^10)
                 0.0000
    Dipole Moment (Debye)
         X       7.3961      Y      15.4703      Z      -6.7652
       Tot      18.4337
    Quadrupole Moments (Debye-Ang)
        XX     -39.6179     XY      -6.0025     YY      27.8945
        XZ      10.8705     YZ      -4.3514     ZZ     -27.9848

 Total job time:  2241.05s(wall), 3681.06s(cpu)
        *  Thank you very much for using Q-Chem.  Have a nice day.  *
