 Q-Chem 4.3, Q-Chem, Inc., Pleasanton, CA (2015)
 Q-Chem 4.3.0 for Intel X86 Linux

User input:
--------------------------------------------------------------
$comment
XAS calculation for the 2b valence excited for water using cvs-adc(2)-x + 6-311+G* basis set
job 1 - determination of HF orbitals
$end

$molecule
0 1
6  -0.451626  2.97913  -0.243335
9  0.491787  2.259491  0.055619
9  -1.150977  3.419658  0.788951
9  -1.125269  0.735598  0.519511
9  -1.174196  2.58802  -1.20633
$end

$rem
jobtype      sp
sym_ignore true
exchange     hf
basis        6-31G*
unrestricted true
$end

--------------------------------------------------------------

   14    -435.3320468359      6.30E-06 Convergence criterion met
 Total energy in the final basis set = -435.3320468359
 Total job time:  3.55s(wall), 17.25s(cpu)
        *  Thank you very much for using Q-Chem.  Have a nice day.  *
 Q-Chem 4.3, Q-Chem, Inc., Pleasanton, CA (2015)
 Q-Chem 4.3.0 for Intel X86 Linux

User input:
--------------------------------------------------------------

$comment
job3 - cvs-adc(2) calculation
$end

$molecule
read
$end

$rem
mem_total 3000
mem_static 1500
sym_ignore true
scf_guess read
method cvs-adc(2)
basis 6-31G*
ee_singlets 20
cc_rest_occ 5                  !only excitations from the lowest N orbitals
unrestricted  true
max_scf_cycles 200
$end
--------------------------------------------------------------

             Standard Nuclear Orientation (Angstroms)
    I     Atom           X                Y                Z
 ----------------------------------------------------------------
    1      C      -0.4516260000     2.9791300000    -0.2433350000
    2      F       0.4917870000     2.2594910000     0.0556190000
    3      F      -1.1509770000     3.4196580000     0.7889510000
    4      F      -1.1252690000     0.7355980000     0.5195110000
    5      F      -1.1741960000     2.5880200000    -1.2063300000
 ----------------------------------------------------------------

   10    -435.3320478908      8.91E-09 Convergence criterion met
 Total energy in the final basis set = -435.3320478908
  Term symbol:  2 (-) A                                     R^2 =  1.43818e-13
  Excitation energy:                                             292.974571 eV
  Term symbol:  3 (-) A                                     R^2 =  1.39212e-13
  Excitation energy:                                             294.692697 eV
  Term symbol:  4 (-) A                                     R^2 =  1.11377e-13
  Excitation energy:                                             301.944542 eV
  Term symbol:  5 (-) A                                     R^2 =  2.00872e-13
  Excitation energy:                                             303.366801 eV
  Term symbol:  6 (-) A                                     R^2 =  8.91098e-14
  Excitation energy:                                             304.037420 eV
  Term symbol:  7 (-) A                                     R^2 =  1.85399e-13
  Excitation energy:                                             304.544187 eV
  Term symbol:  8 (-) A                                     R^2 =  1.46210e-13
  Excitation energy:                                             305.421552 eV
  Term symbol:  9 (-) A                                     R^2 =  9.61554e-14
  Excitation energy:                                             306.465186 eV
  Term symbol:  10 (-) A                                    R^2 =  2.57013e-13
  Excitation energy:                                             312.070144 eV
  Excited state 10 (A)                                             [converged]
  Term symbol:  11 (-) A                                    R^2 =  3.39166e-13
  Excitation energy:                                             313.498846 eV
  Excited state 11 (A)                                             [converged]
  Term symbol:  12 (-) A                                    R^2 =  3.40271e-13
  Excitation energy:                                             313.665202 eV
  Excited state 12 (A)                                             [converged]
  Term symbol:  13 (-) A                                    R^2 =  3.23392e-13
  Excitation energy:                                             313.717595 eV
  Excited state 13 (A)                                             [converged]
  Term symbol:  14 (-) A                                    R^2 =  3.69909e-13
  Excitation energy:                                             314.162938 eV
  Excited state 14 (A)                                             [converged]
  Term symbol:  15 (-) A                                    R^2 =  5.35202e-13
  Excitation energy:                                             314.330830 eV
  Excited state 15 (A)                                             [converged]
  Term symbol:  16 (-) A                                    R^2 =  1.72273e-11
  Excitation energy:                                             318.621256 eV
  Excited state 16 (A)                                             [converged]
  Term symbol:  17 (-) A                                    R^2 =  4.72042e-11
  Excitation energy:                                             319.177335 eV
  Excited state 17 (A)                                             [converged]
  Term symbol:  18 (-) A                                    R^2 =  6.74531e-07
  Excitation energy:                                             323.117869 eV
  Excited state 18 (A)                                             [converged]
  Term symbol:  19 (-) A                                    R^2 =  4.85986e-11
  Excitation energy:                                             323.132032 eV
  Excited state 19 (A)                                             [converged]
  Term symbol:  20 (-) A                                    R^2 =  1.46876e-08
  Excitation energy:                                             323.571160 eV
  Excited state 20 (A)                                             [converged]
  Term symbol:  21 (-) A                                    R^2 =  2.69484e-07
  Excitation energy:                                             323.571174 eV

                    Orbital Energies (a.u.)
 --------------------------------------------------------------

 Alpha MOs
 -- Occupied --
-26.535 -26.519 -26.501 -25.984 -11.734  -1.916  -1.823  -1.783
 -1.244  -1.097  -0.995  -0.989  -0.933  -0.839  -0.828  -0.809
 -0.797  -0.790  -0.351  -0.351  -0.334

 Beta MOs
 -- Occupied --
-26.535 -26.519 -26.501 -25.984 -11.734  -1.916  -1.823  -1.783
 -1.244  -1.097  -0.995  -0.989  -0.933  -0.839  -0.828  -0.809
 -0.797  -0.790  -0.351  -0.351  -0.334

          Ground-State Mulliken Net Atomic Charges

     Atom                 Charge (a.u.)    Spin (a.u.)
  --------------------------------------------------------
      1 C                     1.220967       0.000000
      2 F                    -0.048053       0.000000
      3 F                    -0.197854       0.000000
      4 F                    -0.841896       0.000000
      5 F                    -0.133164       0.000000
  --------------------------------------------------------
  Sum of atomic charges =     0.000000

                    Cartesian Multipole Moments
 -----------------------------------------------------------------
    Charge (ESU x 10^10)
                 0.0000
    Dipole Moment (Debye)
         X       3.1036      Y       8.7019      Z      -3.2182
       Tot       9.7833
    Quadrupole Moments (Debye-Ang)
        XX     -27.2755     XY      -0.4289     YY       9.7913
        XZ       2.7885     YZ      -5.3855     ZZ     -23.7616

 Total job time:  1989.97s(wall), 3199.17s(cpu)
        *  Thank you very much for using Q-Chem.  Have a nice day.  *
