 Q-Chem 4.3, Q-Chem, Inc., Pleasanton, CA (2015)
 Q-Chem 4.3.0 for Intel X86 Linux

User input:
--------------------------------------------------------------
$comment
XAS calculation for the 2b valence excited for water using cvs-adc(2)-x + 6-311+G* basis set
job 1 - determination of HF orbitals
$end

$molecule
0 1
6  -0.49359  2.874138  -0.195617
9  0.650993  2.354245  -0.019683
9  -1.139057  3.169797  0.789822
9  -1.303998  0.999028  0.571826
9  -1.119191  2.533172  -1.21989
$end

$rem
jobtype      sp
sym_ignore true
exchange     hf
basis        6-31G*
unrestricted true
$end

--------------------------------------------------------------

   10    -435.3869762580      4.20E-06 Convergence criterion met
 Total energy in the final basis set = -435.3869762580
 Total job time:  2.86s(wall), 11.14s(cpu)
        *  Thank you very much for using Q-Chem.  Have a nice day.  *
 Q-Chem 4.3, Q-Chem, Inc., Pleasanton, CA (2015)
 Q-Chem 4.3.0 for Intel X86 Linux

User input:
--------------------------------------------------------------

$comment
job3 - cvs-adc(2) calculation
$end

$molecule
read
$end

$rem
mem_total 3000
mem_static 1500
sym_ignore true
scf_guess read
method cvs-adc(2)
basis 6-31G*
ee_singlets 20
cc_rest_occ 5                  !only excitations from the lowest N orbitals
unrestricted  true
max_scf_cycles 200
$end
--------------------------------------------------------------

             Standard Nuclear Orientation (Angstroms)
    I     Atom           X                Y                Z
 ----------------------------------------------------------------
    1      C      -0.4935900000     2.8741380000    -0.1956170000
    2      F       0.6509930000     2.3542450000    -0.0196830000
    3      F      -1.1390570000     3.1697970000     0.7898220000
    4      F      -1.3039980000     0.9990280000     0.5718260000
    5      F      -1.1191910000     2.5331720000    -1.2198900000
 ----------------------------------------------------------------

    7    -435.3869763066      7.30E-09 Convergence criterion met
 Total energy in the final basis set = -435.3869763066
  Term symbol:  2 (-) A                                     R^2 =  1.82917e-14
  Excitation energy:                                             293.534781 eV
  Term symbol:  3 (-) A                                     R^2 =  3.43611e-14
  Excitation energy:                                             295.355694 eV
  Term symbol:  4 (-) A                                     R^2 =  2.90066e-13
  Excitation energy:                                             303.441057 eV
  Term symbol:  5 (-) A                                     R^2 =  1.32456e-13
  Excitation energy:                                             304.250639 eV
  Term symbol:  6 (-) A                                     R^2 =  7.37500e-14
  Excitation energy:                                             305.276341 eV
  Term symbol:  7 (-) A                                     R^2 =  2.30523e-13
  Excitation energy:                                             305.590560 eV
  Term symbol:  8 (-) A                                     R^2 =  6.17068e-14
  Excitation energy:                                             306.335570 eV
  Term symbol:  9 (-) A                                     R^2 =  3.99822e-14
  Excitation energy:                                             307.252280 eV
  Term symbol:  10 (-) A                                    R^2 =  1.30772e-13
  Excitation energy:                                             312.074911 eV
  Excited state 10 (A)                                             [converged]
  Term symbol:  11 (-) A                                    R^2 =  6.17415e-14
  Excitation energy:                                             313.579891 eV
  Excited state 11 (A)                                             [converged]
  Term symbol:  12 (-) A                                    R^2 =  3.10674e-13
  Excitation energy:                                             314.315197 eV
  Excited state 12 (A)                                             [converged]
  Term symbol:  13 (-) A                                    R^2 =  1.17870e-12
  Excitation energy:                                             314.317892 eV
  Excited state 13 (A)                                             [converged]
  Term symbol:  14 (-) A                                    R^2 =  1.05842e-12
  Excitation energy:                                             314.751896 eV
  Excited state 14 (A)                                             [converged]
  Term symbol:  15 (-) A                                    R^2 =  1.65162e-12
  Excitation energy:                                             314.844166 eV
  Excited state 15 (A)                                             [converged]
  Term symbol:  16 (-) A                                    R^2 =  2.37416e-11
  Excitation energy:                                             320.240543 eV
  Excited state 16 (A)                                             [converged]
  Term symbol:  17 (-) A                                    R^2 =  8.01463e-12
  Excitation energy:                                             320.781353 eV
  Excited state 17 (A)                                         [not converged]
  Term symbol:  18 (-) A                                    R^2 =  2.42518e-04
  Excitation energy:                                             331.993350 eV
  Excited state 18 (A)                                         [not converged]
  Term symbol:  19 (-) A                                    R^2 =  4.41968e-05
  Excitation energy:                                             332.151412 eV
  Excited state 19 (A)                                         [not converged]
  Term symbol:  20 (-) A                                    R^2 =  1.95101e-03
  Excitation energy:                                             332.217509 eV
  Excited state 20 (A)                                         [not converged]
  Term symbol:  21 (-) A                                    R^2 =  6.15150e-04
  Excitation energy:                                             332.320792 eV

                    Orbital Energies (a.u.)
 --------------------------------------------------------------

 Alpha MOs
 -- Occupied --
-26.506 -26.501 -26.498 -25.999 -11.721  -1.913  -1.817  -1.800
 -1.269  -1.086  -0.993  -0.992  -0.930  -0.830  -0.826  -0.804
 -0.801  -0.782  -0.370  -0.369  -0.366

 Beta MOs
 -- Occupied --
-26.506 -26.501 -26.498 -25.999 -11.721  -1.913  -1.817  -1.800
 -1.269  -1.086  -0.993  -0.992  -0.930  -0.830  -0.826  -0.804
 -0.801  -0.782  -0.370  -0.369  -0.366

          Ground-State Mulliken Net Atomic Charges

     Atom                 Charge (a.u.)    Spin (a.u.)
  --------------------------------------------------------
      1 C                     1.231556       0.000000
      2 F                    -0.171959       0.000000
      3 F                    -0.081967       0.000000
      4 F                    -0.835828       0.000000
      5 F                    -0.141802       0.000000
  --------------------------------------------------------
  Sum of atomic charges =     0.000000

                    Cartesian Multipole Moments
 -----------------------------------------------------------------
    Charge (ESU x 10^10)
                 0.0000
    Dipole Moment (Debye)
         X       3.0149      Y       7.5869      Z      -2.9001
       Tot       8.6638
    Quadrupole Moments (Debye-Ang)
        XX     -28.4939     XY      -0.6995     YY       7.5699
        XZ       3.0490     YZ      -4.4508     ZZ     -23.9718

 Total job time:  2143.05s(wall), 3539.63s(cpu)
        *  Thank you very much for using Q-Chem.  Have a nice day.  *
