 Q-Chem 4.3, Q-Chem, Inc., Pleasanton, CA (2015)
 Q-Chem 4.3.0 for Intel X86 Linux

User input:
--------------------------------------------------------------
$comment
XAS calculation for the 2b valence excited for water using cvs-adc(2)-x + 6-311+G* basis set
job 1 - determination of HF orbitals
$end

$molecule
0 1
6  -0.490669  2.99702  -0.229841
9  0.492886  2.275956  0.053401
9  -1.127455  3.457328  0.755691
9  -1.138086  0.630289  0.547424
9  -1.161573  2.627937  -1.207251
$end

$rem
jobtype      sp
sym_ignore true
exchange     hf
basis        6-31G*
unrestricted true
$end

--------------------------------------------------------------

   12    -435.3450128449      7.75E-06 Convergence criterion met
 Total energy in the final basis set = -435.3450128449
 Total job time:  3.30s(wall), 13.32s(cpu)
        *  Thank you very much for using Q-Chem.  Have a nice day.  *
 Q-Chem 4.3, Q-Chem, Inc., Pleasanton, CA (2015)
 Q-Chem 4.3.0 for Intel X86 Linux

User input:
--------------------------------------------------------------

$comment
job3 - cvs-adc(2) calculation
$end

$molecule
read
$end

$rem
mem_total 3000
mem_static 1500
sym_ignore true
scf_guess read
method cvs-adc(2)
basis 6-31G*
ee_singlets 20
cc_rest_occ 5                  !only excitations from the lowest N orbitals
unrestricted  true
max_scf_cycles 200
$end
--------------------------------------------------------------

             Standard Nuclear Orientation (Angstroms)
    I     Atom           X                Y                Z
 ----------------------------------------------------------------
    1      C      -0.4906690000     2.9970200000    -0.2298410000
    2      F       0.4928860000     2.2759560000     0.0534010000
    3      F      -1.1274550000     3.4573280000     0.7556910000
    4      F      -1.1380860000     0.6302890000     0.5474240000
    5      F      -1.1615730000     2.6279370000    -1.2072510000
 ----------------------------------------------------------------

   10    -435.3450136627      9.81E-09 Convergence criterion met
 Total energy in the final basis set = -435.3450136627
  Term symbol:  2 (-) A                                     R^2 =  1.53084e-04
  Excitation energy:                                             293.177035 eV
  Term symbol:  3 (-) A                                     R^2 =  1.06975e-04
  Excitation energy:                                             294.957823 eV
  Term symbol:  4 (-) A                                     R^2 =  4.79471e-05
  Excitation energy:                                             303.514661 eV
  Term symbol:  5 (-) A                                     R^2 =  2.91198e-05
  Excitation energy:                                             304.016747 eV
  Term symbol:  6 (-) A                                     R^2 =  1.15475e-05
  Excitation energy:                                             304.192732 eV
  Term symbol:  7 (-) A                                     R^2 =  2.97484e-05
  Excitation energy:                                             305.576846 eV
  Term symbol:  8 (-) A                                     R^2 =  2.23827e-05
  Excitation energy:                                             306.032161 eV
  Term symbol:  9 (-) A                                     R^2 =  4.18335e-06
  Excitation energy:                                             306.215717 eV
  Term symbol:  10 (-) A                                    R^2 =  1.33486e-04
  Excitation energy:                                             312.274900 eV
  Excited state 10 (A)                                         [not converged]
  Term symbol:  11 (-) A                                    R^2 =  2.64536e-04
  Excitation energy:                                             313.737218 eV
  Excited state 11 (A)                                         [not converged]
  Term symbol:  12 (-) A                                    R^2 =  1.18444e-05
  Excitation energy:                                             313.966772 eV
  Excited state 12 (A)                                         [not converged]
  Term symbol:  13 (-) A                                    R^2 =  7.36764e-05
  Excitation energy:                                             314.108515 eV
  Excited state 13 (A)                                             [converged]
  Term symbol:  14 (-) A                                    R^2 =  6.78033e-07
  Excitation energy:                                             314.481144 eV
  Excited state 14 (A)                                         [not converged]
  Term symbol:  15 (-) A                                    R^2 =  2.00158e-05
  Excitation energy:                                             314.605261 eV
  Excited state 15 (A)                                         [not converged]
  Term symbol:  16 (-) A                                    R^2 =  1.03062e-04
  Excitation energy:                                             318.286345 eV
  Excited state 16 (A)                                         [not converged]
  Term symbol:  17 (-) A                                    R^2 =  1.33527e-05
  Excitation energy:                                             318.897608 eV
  Excited state 17 (A)                                         [not converged]
  Term symbol:  18 (-) A                                    R^2 =  1.10141e-02
  Excitation energy:                                             323.781351 eV
  Excited state 18 (A)                                         [not converged]
  Term symbol:  19 (-) A                                    R^2 =  7.03628e-02
  Excitation energy:                                             323.852260 eV
  Excited state 19 (A)                                         [not converged]
  Term symbol:  20 (-) A                                    R^2 =  1.27428e-01
  Excitation energy:                                             324.123432 eV
  Excited state 20 (A)                                         [not converged]
  Term symbol:  21 (-) A                                    R^2 =  4.22445e-01
  Excitation energy:                                             325.579049 eV

                    Orbital Energies (a.u.)
 --------------------------------------------------------------

 Alpha MOs
 -- Occupied --
-26.537 -26.535 -26.525 -25.960 -11.747  -1.934  -1.836  -1.824
 -1.220  -1.111  -1.017  -1.011  -0.954  -0.854  -0.852  -0.829
 -0.813  -0.806  -0.328  -0.328  -0.320

 Beta MOs
 -- Occupied --
-26.537 -26.535 -26.525 -25.960 -11.747  -1.934  -1.836  -1.824
 -1.220  -1.111  -1.017  -1.011  -0.954  -0.854  -0.852  -0.829
 -0.813  -0.806  -0.328  -0.328  -0.320

          Ground-State Mulliken Net Atomic Charges

     Atom                 Charge (a.u.)    Spin (a.u.)
  --------------------------------------------------------
      1 C                     1.205172       0.000000
      2 F                    -0.084339       0.000000
      3 F                    -0.139082       0.000000
      4 F                    -0.875120       0.000000
      5 F                    -0.106631       0.000000
  --------------------------------------------------------
  Sum of atomic charges =     0.000000

                    Cartesian Multipole Moments
 -----------------------------------------------------------------
    Charge (ESU x 10^10)
                 0.0000
    Dipole Moment (Debye)
         X       2.8400      Y       9.8098      Z      -3.3435
       Tot      10.7461
    Quadrupole Moments (Debye-Ang)
        XX     -27.1677     XY      -2.4061     YY      13.6426
        XZ       3.0320     YZ      -4.9903     ZZ     -23.6737

 Total job time:  2239.79s(wall), 3635.34s(cpu)
        *  Thank you very much for using Q-Chem.  Have a nice day.  *
