 Q-Chem 4.3, Q-Chem, Inc., Pleasanton, CA (2015)
 Q-Chem 4.3.0 for Intel X86 Linux

User input:
--------------------------------------------------------------
$comment
XAS calculation for the 2b valence excited for water using cvs-adc(2)-x + 6-311+G* basis set
job 1 - determination of HF orbitals
$end

$molecule
0 1
6  -0.561693  2.571008  -0.115045
9  0.590681  2.341515  -0.000956
9  -1.140121  3.247602  0.791255
9  -1.187045  1.114485  0.474992
9  -1.130117  2.540426  -1.193816
$end

$rem
jobtype      sp
sym_ignore true
exchange     hf
basis        6-31G*
unrestricted true
$end

--------------------------------------------------------------

    8    -435.5375081487      8.62E-06 Convergence criterion met
 Total energy in the final basis set = -435.5375081487
 Total job time:  2.29s(wall), 10.53s(cpu)
        *  Thank you very much for using Q-Chem.  Have a nice day.  *
 Q-Chem 4.3, Q-Chem, Inc., Pleasanton, CA (2015)
 Q-Chem 4.3.0 for Intel X86 Linux

User input:
--------------------------------------------------------------

$comment
job3 - cvs-adc(2) calculation
$end

$molecule
read
$end

$rem
mem_total 3000
mem_static 1500
sym_ignore true
scf_guess read
method cvs-adc(2)
basis 6-31G*
ee_singlets 20
cc_rest_occ 5                  !only excitations from the lowest N orbitals
unrestricted  true
max_scf_cycles 200
$end
--------------------------------------------------------------

             Standard Nuclear Orientation (Angstroms)
    I     Atom           X                Y                Z
 ----------------------------------------------------------------
    1      C      -0.5616930000     2.5710080000    -0.1150450000
    2      F       0.5906810000     2.3415150000    -0.0009560000
    3      F      -1.1401210000     3.2476020000     0.7912550000
    4      F      -1.1870450000     1.1144850000     0.4749920000
    5      F      -1.1301170000     2.5404260000    -1.1938160000
 ----------------------------------------------------------------

    6    -435.5375082842      9.36E-09 Convergence criterion met
 Total energy in the final basis set = -435.5375082842
  Term symbol:  2 (-) A                                     R^2 =  9.07375e-14
  Excitation energy:                                             296.630472 eV
  Term symbol:  3 (-) A                                     R^2 =  6.08392e-14
  Excitation energy:                                             298.608571 eV
  Term symbol:  4 (-) A                                     R^2 =  1.41715e-13
  Excitation energy:                                             303.411344 eV
  Term symbol:  5 (-) A                                     R^2 =  1.78964e-13
  Excitation energy:                                             304.425820 eV
  Term symbol:  6 (-) A                                     R^2 =  9.02688e-14
  Excitation energy:                                             305.641305 eV
  Term symbol:  7 (-) A                                     R^2 =  5.33859e-14
  Excitation energy:                                             306.274597 eV
  Term symbol:  8 (-) A                                     R^2 =  1.44610e-13
  Excitation energy:                                             306.408998 eV
  Term symbol:  9 (-) A                                     R^2 =  5.57084e-14
  Excitation energy:                                             308.393612 eV
  Term symbol:  10 (-) A                                    R^2 =  7.44905e-14
  Excitation energy:                                             311.786050 eV
  Excited state 10 (A)                                             [converged]
  Term symbol:  11 (-) A                                    R^2 =  6.27117e-14
  Excitation energy:                                             313.236503 eV
  Excited state 11 (A)                                             [converged]
  Term symbol:  12 (-) A                                    R^2 =  1.04490e-13
  Excitation energy:                                             313.978888 eV
  Excited state 12 (A)                                             [converged]
  Term symbol:  13 (-) A                                    R^2 =  3.30703e-13
  Excitation energy:                                             314.348214 eV
  Excited state 13 (A)                                             [converged]
  Term symbol:  14 (-) A                                    R^2 =  2.83138e-13
  Excitation energy:                                             314.350524 eV
  Excited state 14 (A)                                             [converged]
  Term symbol:  15 (-) A                                    R^2 =  1.55279e-12
  Excitation energy:                                             314.804218 eV
  Excited state 15 (A)                                             [converged]
  Term symbol:  16 (-) A                                    R^2 =  1.41555e-12
  Excitation energy:                                             317.125975 eV
  Excited state 16 (A)                                             [converged]
  Term symbol:  17 (-) A                                    R^2 =  1.34302e-12
  Excitation energy:                                             317.539939 eV
  Excited state 17 (A)                                             [converged]
  Term symbol:  18 (-) A                                    R^2 =  3.62594e-07
  Excitation energy:                                             330.556183 eV
  Excited state 18 (A)                                             [converged]
  Term symbol:  19 (-) A                                    R^2 =  4.24995e-07
  Excitation energy:                                             330.731407 eV
  Excited state 19 (A)                                         [not converged]
  Term symbol:  20 (-) A                                    R^2 =  7.56706e-04
  Excitation energy:                                             331.280078 eV
  Excited state 20 (A)                                         [not converged]
  Term symbol:  21 (-) A                                    R^2 =  1.86426e-04
  Excitation energy:                                             331.396046 eV

                    Orbital Energies (a.u.)
 --------------------------------------------------------------

 Alpha MOs
 -- Occupied --
-26.457 -26.436 -26.408 -26.193 -11.638  -1.886  -1.790  -1.735
 -1.456  -1.044  -0.961  -0.947  -0.904  -0.795  -0.784  -0.777
 -0.751  -0.723  -0.539  -0.537  -0.531

 Beta MOs
 -- Occupied --
-26.457 -26.436 -26.408 -26.193 -11.638  -1.886  -1.790  -1.735
 -1.456  -1.044  -0.961  -0.947  -0.904  -0.795  -0.784  -0.777
 -0.751  -0.723  -0.539  -0.537  -0.531

          Ground-State Mulliken Net Atomic Charges

     Atom                 Charge (a.u.)    Spin (a.u.)
  --------------------------------------------------------
      1 C                     1.215606       0.000000
      2 F                    -0.149570       0.000000
      3 F                    -0.263308       0.000000
      4 F                    -0.600254       0.000000
      5 F                    -0.202474       0.000000
  --------------------------------------------------------
  Sum of atomic charges =     0.000000

                    Cartesian Multipole Moments
 -----------------------------------------------------------------
    Charge (ESU x 10^10)
                 0.0000
    Dipole Moment (Debye)
         X       1.8099      Y       3.1432      Z      -1.5610
       Tot       3.9487
    Quadrupole Moments (Debye-Ang)
        XX     -26.4533     XY       1.1391     YY     -11.8944
        XZ       1.5269     YZ      -2.8212     ZZ     -24.3070

 Total job time:  2042.67s(wall), 3366.64s(cpu)
        *  Thank you very much for using Q-Chem.  Have a nice day.  *
