 Q-Chem 4.3, Q-Chem, Inc., Pleasanton, CA (2015)
 Q-Chem 4.3.0 for Intel X86 Linux

User input:
--------------------------------------------------------------
$comment
XAS calculation for the 2b valence excited for water using cvs-adc(2)-x + 6-311+G* basis set
job 1 - determination of HF orbitals
$end

$molecule
0 1
6  -0.493868  2.968379  -0.235559
9  0.534243  2.316744  0.018945
9  -1.158831  3.277651  0.791322
9  -1.203723  0.879263  0.535193
9  -1.145414  2.561237  -1.177792
$end

$rem
jobtype      sp
sym_ignore true
exchange     hf
basis        6-31G*
unrestricted true
$end

--------------------------------------------------------------

   12    -435.3468080707      6.56E-06 Convergence criterion met
 Total energy in the final basis set = -435.3468080707
 Total job time:  10.36s(wall), 14.45s(cpu)
        *  Thank you very much for using Q-Chem.  Have a nice day.  *
 Q-Chem 4.3, Q-Chem, Inc., Pleasanton, CA (2015)
 Q-Chem 4.3.0 for Intel X86 Linux

User input:
--------------------------------------------------------------

$comment
job3 - cvs-adc(2) calculation
$end

$molecule
read
$end

$rem
mem_total 3000
mem_static 1500
sym_ignore true
scf_guess read
method cvs-adc(2)
basis 6-31G*
ee_singlets 20
cc_rest_occ 5                  !only excitations from the lowest N orbitals
unrestricted  true
max_scf_cycles 200
$end
--------------------------------------------------------------

             Standard Nuclear Orientation (Angstroms)
    I     Atom           X                Y                Z
 ----------------------------------------------------------------
    1      C      -0.4938680000     2.9683790000    -0.2355590000
    2      F       0.5342430000     2.3167440000     0.0189450000
    3      F      -1.1588310000     3.2776510000     0.7913220000
    4      F      -1.2037230000     0.8792630000     0.5351930000
    5      F      -1.1454140000     2.5612370000    -1.1777920000
 ----------------------------------------------------------------

    9    -435.3468083268      5.51E-09 Convergence criterion met
 Total energy in the final basis set = -435.3468083268
  Term symbol:  2 (-) A                                     R^2 =  2.80091e-13
  Excitation energy:                                             292.896267 eV
  Term symbol:  3 (-) A                                     R^2 =  1.94349e-13
  Excitation energy:                                             294.681005 eV
  Term symbol:  4 (-) A                                     R^2 =  1.54139e-12
  Excitation energy:                                             303.644145 eV
  Term symbol:  5 (-) A                                     R^2 =  5.72176e-13
  Excitation energy:                                             304.356483 eV
  Term symbol:  6 (-) A                                     R^2 =  1.81764e-12
  Excitation energy:                                             305.112401 eV
  Term symbol:  7 (-) A                                     R^2 =  1.48689e-12
  Excitation energy:                                             305.671143 eV
  Term symbol:  8 (-) A                                     R^2 =  8.72012e-13
  Excitation energy:                                             306.398998 eV
  Term symbol:  9 (-) A                                     R^2 =  5.58889e-13
  Excitation energy:                                             307.111574 eV
  Term symbol:  10 (-) A                                    R^2 =  6.04119e-13
  Excitation energy:                                             311.992668 eV
  Excited state 10 (A)                                             [converged]
  Term symbol:  11 (-) A                                    R^2 =  6.25952e-13
  Excitation energy:                                             313.564143 eV
  Excited state 11 (A)                                             [converged]
  Term symbol:  12 (-) A                                    R^2 =  1.94290e-12
  Excitation energy:                                             313.752595 eV
  Excited state 12 (A)                                             [converged]
  Term symbol:  13 (-) A                                    R^2 =  1.44890e-12
  Excitation energy:                                             313.867817 eV
  Excited state 13 (A)                                             [converged]
  Term symbol:  14 (-) A                                    R^2 =  5.51392e-12
  Excitation energy:                                             314.270017 eV
  Excited state 14 (A)                                             [converged]
  Term symbol:  15 (-) A                                    R^2 =  2.84018e-12
  Excitation energy:                                             314.449567 eV
  Excited state 15 (A)                                             [converged]
  Term symbol:  16 (-) A                                    R^2 =  2.90671e-10
  Excitation energy:                                             319.874993 eV
  Excited state 16 (A)                                             [converged]
  Term symbol:  17 (-) A                                    R^2 =  3.17744e-10
  Excitation energy:                                             320.363501 eV
  Excited state 17 (A)                                         [not converged]
  Term symbol:  18 (-) A                                    R^2 =  1.35476e-01
  Excitation energy:                                             324.254093 eV
  Excited state 18 (A)                                         [not converged]
  Term symbol:  19 (-) A                                    R^2 =  5.10208e-01
  Excitation energy:                                             326.450048 eV
  Excited state 19 (A)                                         [not converged]
  Term symbol:  20 (-) A                                    R^2 =  1.91224e-05
  Excitation energy:                                             331.824910 eV
  Excited state 20 (A)                                         [not converged]
  Term symbol:  21 (-) A                                    R^2 =  2.71540e-04
  Excitation energy:                                             331.959730 eV

                    Orbital Energies (a.u.)
 --------------------------------------------------------------

 Alpha MOs
 -- Occupied --
-26.527 -26.510 -26.506 -25.967 -11.731  -1.932  -1.828  -1.806
 -1.236  -1.099  -1.006  -1.002  -0.944  -0.840  -0.838  -0.809
 -0.798  -0.789  -0.340  -0.339  -0.338

 Beta MOs
 -- Occupied --
-26.527 -26.510 -26.506 -25.967 -11.731  -1.932  -1.828  -1.806
 -1.236  -1.099  -1.006  -1.002  -0.944  -0.840  -0.838  -0.809
 -0.798  -0.789  -0.340  -0.339  -0.338

          Ground-State Mulliken Net Atomic Charges

     Atom                 Charge (a.u.)    Spin (a.u.)
  --------------------------------------------------------
      1 C                     1.209555       0.000000
      2 F                    -0.105059       0.000000
      3 F                    -0.138538       0.000000
      4 F                    -0.881937       0.000000
      5 F                    -0.084021       0.000000
  --------------------------------------------------------
  Sum of atomic charges =     0.000000

                    Cartesian Multipole Moments
 -----------------------------------------------------------------
    Charge (ESU x 10^10)
                 0.0000
    Dipole Moment (Debye)
         X       2.9918      Y       8.7000      Z      -3.3911
       Tot       9.8051
    Quadrupole Moments (Debye-Ang)
        XX     -27.7816     XY      -1.2467     YY      11.5502
        XZ       3.2234     YZ      -5.7728     ZZ     -23.5678

 Total job time:  2513.22s(wall), 4065.21s(cpu)
        *  Thank you very much for using Q-Chem.  Have a nice day.  *
