 Q-Chem 4.3, Q-Chem, Inc., Pleasanton, CA (2015)
 Q-Chem 4.3.0 for Intel X86 Linux

User input:
--------------------------------------------------------------
$comment
XAS calculation for the 2b valence excited for water using cvs-adc(2)-x + 6-311+G* basis set
job 1 - determination of HF orbitals
$end

$molecule
0 1
6  -0.53223  2.805457  -0.207444
9  0.577774  2.317671  0.007253
9  -1.143993  3.249825  0.789848
9  -1.201859  1.008294  0.508504
9  -1.13221  2.532402  -1.180527
$end

$rem
jobtype      sp
sym_ignore true
exchange     hf
basis        6-31G*
unrestricted true
$end

--------------------------------------------------------------

    9    -435.4173538663      4.30E-06 Convergence criterion met
 Total energy in the final basis set = -435.4173538663
 Total job time:  2.56s(wall), 10.37s(cpu)
        *  Thank you very much for using Q-Chem.  Have a nice day.  *
 Q-Chem 4.3, Q-Chem, Inc., Pleasanton, CA (2015)
 Q-Chem 4.3.0 for Intel X86 Linux

User input:
--------------------------------------------------------------

$comment
job3 - cvs-adc(2) calculation
$end

$molecule
read
$end

$rem
mem_total 3000
mem_static 1500
sym_ignore true
scf_guess read
method cvs-adc(2)
basis 6-31G*
ee_singlets 20
cc_rest_occ 5                  !only excitations from the lowest N orbitals
unrestricted  true
max_scf_cycles 200
$end
--------------------------------------------------------------

             Standard Nuclear Orientation (Angstroms)
    I     Atom           X                Y                Z
 ----------------------------------------------------------------
    1      C      -0.5322300000     2.8054570000    -0.2074440000
    2      F       0.5777740000     2.3176710000     0.0072530000
    3      F      -1.1439930000     3.2498250000     0.7898480000
    4      F      -1.2018590000     1.0082940000     0.5085040000
    5      F      -1.1322100000     2.5324020000    -1.1805270000
 ----------------------------------------------------------------

    6    -435.4173540217      3.65E-09 Convergence criterion met
 Total energy in the final basis set = -435.4173540217
  Term symbol:  2 (-) A                                     R^2 =  8.70141e-14
  Excitation energy:                                             294.244442 eV
  Term symbol:  3 (-) A                                     R^2 =  9.58358e-14
  Excitation energy:                                             296.080113 eV
  Term symbol:  4 (-) A                                     R^2 =  1.18718e-13
  Excitation energy:                                             303.968793 eV
  Term symbol:  5 (-) A                                     R^2 =  8.38594e-14
  Excitation energy:                                             304.708638 eV
  Term symbol:  6 (-) A                                     R^2 =  6.85584e-14
  Excitation energy:                                             306.041434 eV
  Term symbol:  7 (-) A                                     R^2 =  3.12918e-13
  Excitation energy:                                             306.551017 eV
  Term symbol:  8 (-) A                                     R^2 =  2.67646e-14
  Excitation energy:                                             306.818621 eV
  Term symbol:  9 (-) A                                     R^2 =  1.87064e-13
  Excitation energy:                                             308.517730 eV
  Term symbol:  10 (-) A                                    R^2 =  4.41577e-13
  Excitation energy:                                             311.942316 eV
  Excited state 10 (A)                                             [converged]
  Term symbol:  11 (-) A                                    R^2 =  7.10910e-14
  Excitation energy:                                             313.586446 eV
  Excited state 11 (A)                                             [converged]
  Term symbol:  12 (-) A                                    R^2 =  3.93115e-13
  Excitation energy:                                             314.206706 eV
  Excited state 12 (A)                                             [converged]
  Term symbol:  13 (-) A                                    R^2 =  7.99708e-14
  Excitation energy:                                             314.431471 eV
  Excited state 13 (A)                                             [converged]
  Term symbol:  14 (-) A                                    R^2 =  1.97489e-13
  Excitation energy:                                             314.600045 eV
  Excited state 14 (A)                                             [converged]
  Term symbol:  15 (-) A                                    R^2 =  1.25852e-13
  Excitation energy:                                             314.967983 eV
  Excited state 15 (A)                                             [converged]
  Term symbol:  16 (-) A                                    R^2 =  2.06474e-12
  Excitation energy:                                             319.918047 eV
  Excited state 16 (A)                                             [converged]
  Term symbol:  17 (-) A                                    R^2 =  2.27627e-13
  Excitation energy:                                             320.411137 eV
  Excited state 17 (A)                                             [converged]
  Term symbol:  18 (-) A                                    R^2 =  4.16132e-07
  Excitation energy:                                             331.213979 eV
  Excited state 18 (A)                                         [not converged]
  Term symbol:  19 (-) A                                    R^2 =  1.27164e-06
  Excitation energy:                                             331.392882 eV
  Excited state 19 (A)                                         [not converged]
  Term symbol:  20 (-) A                                    R^2 =  1.27509e-05
  Excitation energy:                                             331.909448 eV
  Excited state 20 (A)                                         [not converged]
  Term symbol:  21 (-) A                                    R^2 =  7.91153e-05
  Excitation energy:                                             332.052415 eV

                    Orbital Energies (a.u.)
 --------------------------------------------------------------

 Alpha MOs
 -- Occupied --
-26.510 -26.481 -26.471 -26.031 -11.699  -1.929  -1.826  -1.788
 -1.301  -1.082  -0.999  -0.992  -0.937  -0.825  -0.822  -0.809
 -0.788  -0.769  -0.398  -0.398  -0.395

 Beta MOs
 -- Occupied --
-26.510 -26.481 -26.471 -26.031 -11.699  -1.929  -1.826  -1.788
 -1.301  -1.082  -0.999  -0.992  -0.937  -0.825  -0.822  -0.809
 -0.788  -0.769  -0.398  -0.398  -0.395

          Ground-State Mulliken Net Atomic Charges

     Atom                 Charge (a.u.)    Spin (a.u.)
  --------------------------------------------------------
      1 C                     1.191201       0.000000
      2 F                    -0.147717       0.000000
      3 F                    -0.170870       0.000000
      4 F                    -0.797576       0.000000
      5 F                    -0.075039       0.000000
  --------------------------------------------------------
  Sum of atomic charges =     0.000000

                    Cartesian Multipole Moments
 -----------------------------------------------------------------
    Charge (ESU x 10^10)
                 0.0000
    Dipole Moment (Debye)
         X       2.4252      Y       6.6492      Z      -2.9853
       Tot       7.6815
    Quadrupole Moments (Debye-Ang)
        XX     -27.2533     XY      -0.8114     YY       3.0537
        XZ       2.8915     YZ      -5.3577     ZZ     -23.5321

 Total job time:  1736.61s(wall), 2849.35s(cpu)
        *  Thank you very much for using Q-Chem.  Have a nice day.  *
