 Q-Chem 4.3, Q-Chem, Inc., Pleasanton, CA (2015)
 Q-Chem 4.3.0 for Intel X86 Linux

User input:
--------------------------------------------------------------
$comment
XAS calculation for the 2b valence excited for water using cvs-adc(2)-x + 6-311+G* basis set
job 1 - determination of HF orbitals
$end

$molecule
0 1
6  -0.54804  2.768639  -0.187697
9  0.666766  2.370352  -0.020934
9  -1.149474  3.165739  0.803721
9  -1.294475  1.088426  0.548687
9  -1.120352  2.527324  -1.211839
$end

$rem
jobtype      sp
sym_ignore true
exchange     hf
basis        6-31G*
unrestricted true
$end

--------------------------------------------------------------

    8    -435.4351566412      8.86E-06 Convergence criterion met
 Total energy in the final basis set = -435.4351566412
 Total job time:  2.32s(wall), 10.20s(cpu)
        *  Thank you very much for using Q-Chem.  Have a nice day.  *
 Q-Chem 4.3, Q-Chem, Inc., Pleasanton, CA (2015)
 Q-Chem 4.3.0 for Intel X86 Linux

User input:
--------------------------------------------------------------

$comment
job3 - cvs-adc(2) calculation
$end

$molecule
read
$end

$rem
mem_total 3000
mem_static 1500
sym_ignore true
scf_guess read
method cvs-adc(2)
basis 6-31G*
ee_singlets 20
cc_rest_occ 5                  !only excitations from the lowest N orbitals
unrestricted  true
max_scf_cycles 200
$end
--------------------------------------------------------------

             Standard Nuclear Orientation (Angstroms)
    I     Atom           X                Y                Z
 ----------------------------------------------------------------
    1      C      -0.5480400000     2.7686390000    -0.1876970000
    2      F       0.6667660000     2.3703520000    -0.0209340000
    3      F      -1.1494740000     3.1657390000     0.8037210000
    4      F      -1.2944750000     1.0884260000     0.5486870000
    5      F      -1.1203520000     2.5273240000    -1.2118390000
 ----------------------------------------------------------------

    6    -435.4351567493      8.18E-09 Convergence criterion met
 Total energy in the final basis set = -435.4351567493
  Term symbol:  2 (-) A                                     R^2 =  9.16053e-14
  Excitation energy:                                             294.552815 eV
  Term symbol:  3 (-) A                                     R^2 =  2.30134e-13
  Excitation energy:                                             296.390756 eV
  Term symbol:  4 (-) A                                     R^2 =  2.89418e-13
  Excitation energy:                                             302.699669 eV
  Term symbol:  5 (-) A                                     R^2 =  2.88677e-13
  Excitation energy:                                             304.734347 eV
  Term symbol:  6 (-) A                                     R^2 =  5.00613e-13
  Excitation energy:                                             304.893476 eV
  Term symbol:  7 (-) A                                     R^2 =  2.01672e-13
  Excitation energy:                                             305.956339 eV
  Term symbol:  8 (-) A                                     R^2 =  2.19999e-13
  Excitation energy:                                             306.757469 eV
  Term symbol:  9 (-) A                                     R^2 =  3.01294e-13
  Excitation energy:                                             308.025912 eV
  Term symbol:  10 (-) A                                    R^2 =  5.97819e-13
  Excitation energy:                                             311.954188 eV
  Excited state 10 (A)                                             [converged]
  Term symbol:  11 (-) A                                    R^2 =  5.30487e-13
  Excitation energy:                                             313.456951 eV
  Excited state 11 (A)                                             [converged]
  Term symbol:  12 (-) A                                    R^2 =  3.73422e-13
  Excitation energy:                                             314.359973 eV
  Excited state 12 (A)                                             [converged]
  Term symbol:  13 (-) A                                    R^2 =  3.51613e-13
  Excitation energy:                                             314.559517 eV
  Excited state 13 (A)                                             [converged]
  Term symbol:  14 (-) A                                    R^2 =  4.04283e-13
  Excitation energy:                                             314.765333 eV
  Excited state 14 (A)                                             [converged]
  Term symbol:  15 (-) A                                    R^2 =  3.41236e-13
  Excitation energy:                                             315.032998 eV
  Excited state 15 (A)                                             [converged]
  Term symbol:  16 (-) A                                    R^2 =  3.32909e-12
  Excitation energy:                                             319.551853 eV
  Excited state 16 (A)                                             [converged]
  Term symbol:  17 (-) A                                    R^2 =  4.28285e-12
  Excitation energy:                                             320.064545 eV
  Excited state 17 (A)                                             [converged]
  Term symbol:  18 (-) A                                    R^2 =  5.16353e-08
  Excitation energy:                                             331.337246 eV
  Excited state 18 (A)                                             [converged]
  Term symbol:  19 (-) A                                    R^2 =  9.91882e-07
  Excitation energy:                                             331.501496 eV
  Excited state 19 (A)                                             [converged]
  Term symbol:  20 (-) A                                    R^2 =  8.65637e-07
  Excitation energy:                                             331.745178 eV
  Excited state 20 (A)                                         [not converged]
  Term symbol:  21 (-) A                                    R^2 =  6.47601e-06
  Excitation energy:                                             331.786332 eV

                    Orbital Energies (a.u.)
 --------------------------------------------------------------

 Alpha MOs
 -- Occupied --
-26.497 -26.468 -26.466 -26.063 -11.693  -1.903  -1.811  -1.770
 -1.331  -1.070  -0.982  -0.975  -0.919  -0.815  -0.807  -0.802
 -0.782  -0.761  -0.427  -0.425  -0.418

 Beta MOs
 -- Occupied --
-26.497 -26.468 -26.466 -26.063 -11.693  -1.903  -1.811  -1.770
 -1.331  -1.070  -0.982  -0.975  -0.919  -0.815  -0.807  -0.802
 -0.782  -0.761  -0.427  -0.425  -0.418

          Ground-State Mulliken Net Atomic Charges

     Atom                 Charge (a.u.)    Spin (a.u.)
  --------------------------------------------------------
      1 C                     1.217873       0.000000
      2 F                    -0.224671       0.000000
      3 F                    -0.131795       0.000000
      4 F                    -0.749551       0.000000
      5 F                    -0.111856       0.000000
  --------------------------------------------------------
  Sum of atomic charges =     0.000000

                    Cartesian Multipole Moments
 -----------------------------------------------------------------
    Charge (ESU x 10^10)
                 0.0000
    Dipole Moment (Debye)
         X       2.2139      Y       5.9176      Z      -2.6847
       Tot       6.8649
    Quadrupole Moments (Debye-Ang)
        XX     -27.6799     XY      -1.0047     YY       0.5570
        XZ       2.8232     YZ      -4.6177     ZZ     -23.8063

 Total job time:  2238.91s(wall), 3738.11s(cpu)
        *  Thank you very much for using Q-Chem.  Have a nice day.  *
