 Q-Chem 4.3, Q-Chem, Inc., Pleasanton, CA (2015)
 Q-Chem 4.3.0 for Intel X86 Linux

User input:
--------------------------------------------------------------
$comment
XAS calculation for the 2b valence excited for water using cvs-adc(2)-x + 6-311+G* basis set
job 1 - determination of HF orbitals
$end

$molecule
0 1
6  -0.435182  2.79214  -0.269502
9  0.757425  2.699948  -0.16621
9  -1.080069  3.132594  0.747651
9  -1.67719  0.63869  0.862552
9  -0.983858  2.703934  -1.272432
$end

$rem
jobtype      sp
sym_ignore true
exchange     hf
basis        6-31G*
unrestricted true
$end

--------------------------------------------------------------

   10    -435.3714498197      4.53E-06 Convergence criterion met
 Total energy in the final basis set = -435.3714498197
 Total job time:  2.78s(wall), 11.98s(cpu)
        *  Thank you very much for using Q-Chem.  Have a nice day.  *
 Q-Chem 4.3, Q-Chem, Inc., Pleasanton, CA (2015)
 Q-Chem 4.3.0 for Intel X86 Linux

User input:
--------------------------------------------------------------

$comment
job3 - cvs-adc(2) calculation
$end

$molecule
read
$end

$rem
mem_total 3000
mem_static 1500
sym_ignore true
scf_guess read
method cvs-adc(2)
basis 6-31G*
ee_singlets 20
cc_rest_occ 5                  !only excitations from the lowest N orbitals
unrestricted  true
max_scf_cycles 200
$end
--------------------------------------------------------------

             Standard Nuclear Orientation (Angstroms)
    I     Atom           X                Y                Z
 ----------------------------------------------------------------
    1      C      -0.4351820000     2.7921400000    -0.2695020000
    2      F       0.7574250000     2.6999480000    -0.1662100000
    3      F      -1.0800690000     3.1325940000     0.7476510000
    4      F      -1.6771900000     0.6386900000     0.8625520000
    5      F      -0.9838580000     2.7039340000    -1.2724320000
 ----------------------------------------------------------------

    7    -435.3714499895      4.38E-09 Convergence criterion met
 Total energy in the final basis set = -435.3714499895
  Term symbol:  2 (-) A                                     R^2 =  2.13962e-13
  Excitation energy:                                             294.934970 eV
  Term symbol:  3 (-) A                                     R^2 =  1.92477e-13
  Excitation energy:                                             296.893828 eV
  Term symbol:  4 (-) A                                     R^2 =  2.11467e-13
  Excitation energy:                                             303.395713 eV
  Term symbol:  5 (-) A                                     R^2 =  4.33417e-13
  Excitation energy:                                             304.959617 eV
  Term symbol:  6 (-) A                                     R^2 =  1.20980e-13
  Excitation energy:                                             305.354090 eV
  Term symbol:  7 (-) A                                     R^2 =  1.20578e-13
  Excitation energy:                                             307.507425 eV
  Term symbol:  8 (-) A                                     R^2 =  1.78682e-13
  Excitation energy:                                             307.734043 eV
  Term symbol:  9 (-) A                                     R^2 =  2.64002e-13
  Excitation energy:                                             309.784429 eV
  Term symbol:  10 (-) A                                    R^2 =  2.99063e-13
  Excitation energy:                                             312.836799 eV
  Excited state 10 (A)                                             [converged]
  Term symbol:  11 (-) A                                    R^2 =  1.76761e-13
  Excitation energy:                                             314.184777 eV
  Excited state 11 (A)                                             [converged]
  Term symbol:  12 (-) A                                    R^2 =  1.97254e-13
  Excitation energy:                                             314.299794 eV
  Excited state 12 (A)                                             [converged]
  Term symbol:  13 (-) A                                    R^2 =  3.05128e-13
  Excitation energy:                                             314.925363 eV
  Excited state 13 (A)                                             [converged]
  Term symbol:  14 (-) A                                    R^2 =  4.87088e-13
  Excitation energy:                                             315.076938 eV
  Excited state 14 (A)                                             [converged]
  Term symbol:  15 (-) A                                    R^2 =  7.46511e-13
  Excitation energy:                                             315.547878 eV
  Excited state 15 (A)                                             [converged]
  Term symbol:  16 (-) A                                    R^2 =  1.37026e-12
  Excitation energy:                                             316.960311 eV
  Excited state 16 (A)                                             [converged]
  Term symbol:  17 (-) A                                    R^2 =  3.92938e-10
  Excitation energy:                                             317.883163 eV
  Excited state 17 (A)                                             [converged]
  Term symbol:  18 (-) A                                    R^2 =  2.08944e-08
  Excitation energy:                                             331.263413 eV
  Excited state 18 (A)                                             [converged]
  Term symbol:  19 (-) A                                    R^2 =  7.03130e-08
  Excitation energy:                                             331.456273 eV
  Excited state 19 (A)                                             [converged]
  Term symbol:  20 (-) A                                    R^2 =  4.33250e-07
  Excitation energy:                                             331.949905 eV
  Excited state 20 (A)                                             [converged]
  Term symbol:  21 (-) A                                    R^2 =  9.08343e-07
  Excitation energy:                                             332.072303 eV

                    Orbital Energies (a.u.)
 --------------------------------------------------------------

 Alpha MOs
 -- Occupied --
-26.577 -26.561 -26.505 -25.968 -11.748  -2.012  -1.911  -1.830
 -1.221  -1.145  -1.074  -1.050  -1.013  -0.891  -0.879  -0.878
 -0.822  -0.813  -0.331  -0.331  -0.317

 Beta MOs
 -- Occupied --
-26.577 -26.561 -26.505 -25.968 -11.748  -2.012  -1.911  -1.830
 -1.221  -1.145  -1.074  -1.050  -1.013  -0.891  -0.879  -0.878
 -0.822  -0.813  -0.331  -0.331  -0.317

          Ground-State Mulliken Net Atomic Charges

     Atom                 Charge (a.u.)    Spin (a.u.)
  --------------------------------------------------------
      1 C                     1.099095       0.000000
      2 F                    -0.104036       0.000000
      3 F                    -0.127766       0.000000
      4 F                    -0.851172       0.000000
      5 F                    -0.016121       0.000000
  --------------------------------------------------------
  Sum of atomic charges =     0.000000

                    Cartesian Multipole Moments
 -----------------------------------------------------------------
    Charge (ESU x 10^10)
                 0.0000
    Dipole Moment (Debye)
         X       4.9738      Y       8.6219      Z      -4.9369
       Tot      11.1108
    Quadrupole Moments (Debye-Ang)
        XX     -33.0602     XY      -0.4438     YY       7.2951
        XZ       6.5421     YZ      -6.5390     ZZ     -24.9181

 Total job time:  1553.92s(wall), 2582.62s(cpu)
        *  Thank you very much for using Q-Chem.  Have a nice day.  *
