 Q-Chem 4.3, Q-Chem, Inc., Pleasanton, CA (2015)
 Q-Chem 4.3.0 for Intel X86 Linux

User input:
--------------------------------------------------------------
$comment
XAS calculation for the 2b valence excited for water using cvs-adc(2)-x + 6-311+G* basis set
job 1 - determination of HF orbitals
$end

$molecule
0 1
6  -0.621549  2.636539  -0.084461
9  0.592786  2.322955  0.014342
9  -1.14958  3.279106  0.794247
9  -1.17314  1.091761  0.471259
9  -1.152242  2.547719  -1.209011
$end

$rem
jobtype      sp
sym_ignore true
exchange     hf
basis        6-31G*
unrestricted true
$end

--------------------------------------------------------------

    8    -435.5332203576      9.34E-06 Convergence criterion met
 Total energy in the final basis set = -435.5332203576
 Total job time:  2.29s(wall), 9.68s(cpu)
        *  Thank you very much for using Q-Chem.  Have a nice day.  *
 Q-Chem 4.3, Q-Chem, Inc., Pleasanton, CA (2015)
 Q-Chem 4.3.0 for Intel X86 Linux

User input:
--------------------------------------------------------------

$comment
job3 - cvs-adc(2) calculation
$end

$molecule
read
$end

$rem
mem_total 3000
mem_static 1500
sym_ignore true
scf_guess read
method cvs-adc(2)
basis 6-31G*
ee_singlets 20
cc_rest_occ 5                  !only excitations from the lowest N orbitals
unrestricted  true
max_scf_cycles 200
$end
--------------------------------------------------------------

             Standard Nuclear Orientation (Angstroms)
    I     Atom           X                Y                Z
 ----------------------------------------------------------------
    1      C      -0.6215490000     2.6365390000    -0.0844610000
    2      F       0.5927860000     2.3229550000     0.0143420000
    3      F      -1.1495800000     3.2791060000     0.7942470000
    4      F      -1.1731400000     1.0917610000     0.4712590000
    5      F      -1.1522420000     2.5477190000    -1.2090110000
 ----------------------------------------------------------------

    7    -435.5332205506      3.76E-09 Convergence criterion met
 Total energy in the final basis set = -435.5332205506
  Term symbol:  2 (-) A                                     R^2 =  3.40539e-13
  Excitation energy:                                             296.250405 eV
  Term symbol:  3 (-) A                                     R^2 =  1.07876e-13
  Excitation energy:                                             298.179936 eV
  Term symbol:  4 (-) A                                     R^2 =  3.85460e-13
  Excitation energy:                                             303.212413 eV
  Term symbol:  5 (-) A                                     R^2 =  1.94846e-13
  Excitation energy:                                             304.147564 eV
  Term symbol:  6 (-) A                                     R^2 =  3.58196e-13
  Excitation energy:                                             305.310562 eV
  Term symbol:  7 (-) A                                     R^2 =  4.14181e-13
  Excitation energy:                                             305.352452 eV
  Term symbol:  8 (-) A                                     R^2 =  1.12465e-13
  Excitation energy:                                             306.349388 eV
  Term symbol:  9 (-) A                                     R^2 =  2.37423e-13
  Excitation energy:                                             307.452135 eV
  Term symbol:  10 (-) A                                    R^2 =  5.09548e-13
  Excitation energy:                                             311.829151 eV
  Excited state 10 (A)                                             [converged]
  Term symbol:  11 (-) A                                    R^2 =  6.62481e-13
  Excitation energy:                                             313.180753 eV
  Excited state 11 (A)                                             [converged]
  Term symbol:  12 (-) A                                    R^2 =  1.43102e-13
  Excitation energy:                                             314.269415 eV
  Excited state 12 (A)                                             [converged]
  Term symbol:  13 (-) A                                    R^2 =  3.87217e-13
  Excitation energy:                                             314.400864 eV
  Excited state 13 (A)                                             [converged]
  Term symbol:  14 (-) A                                    R^2 =  3.09223e-13
  Excitation energy:                                             314.635335 eV
  Excited state 14 (A)                                             [converged]
  Term symbol:  15 (-) A                                    R^2 =  5.17819e-13
  Excitation energy:                                             314.821756 eV
  Excited state 15 (A)                                             [converged]
  Term symbol:  16 (-) A                                    R^2 =  2.80373e-10
  Excitation energy:                                             317.631044 eV
  Excited state 16 (A)                                             [converged]
  Term symbol:  17 (-) A                                    R^2 =  1.26113e-12
  Excitation energy:                                             318.068429 eV
  Excited state 17 (A)                                             [converged]
  Term symbol:  18 (-) A                                    R^2 =  5.19725e-07
  Excitation energy:                                             331.030313 eV
  Excited state 18 (A)                                         [not converged]
  Term symbol:  19 (-) A                                    R^2 =  2.21723e-06
  Excitation energy:                                             331.188571 eV
  Excited state 19 (A)                                         [not converged]
  Term symbol:  20 (-) A                                    R^2 =  3.76394e-04
  Excitation energy:                                             331.530542 eV
  Excited state 20 (A)                                         [not converged]
  Term symbol:  21 (-) A                                    R^2 =  1.20871e-04
  Excitation energy:                                             331.631929 eV

                    Orbital Energies (a.u.)
 --------------------------------------------------------------

 Alpha MOs
 -- Occupied --
-26.453 -26.437 -26.429 -26.182 -11.649  -1.869  -1.775  -1.750
 -1.442  -1.041  -0.952  -0.946  -0.895  -0.790  -0.787  -0.773
 -0.762  -0.733  -0.528  -0.527  -0.519

 Beta MOs
 -- Occupied --
-26.453 -26.437 -26.429 -26.182 -11.649  -1.869  -1.775  -1.750
 -1.442  -1.041  -0.952  -0.946  -0.895  -0.790  -0.787  -0.773
 -0.762  -0.733  -0.528  -0.527  -0.519

          Ground-State Mulliken Net Atomic Charges

     Atom                 Charge (a.u.)    Spin (a.u.)
  --------------------------------------------------------
      1 C                     1.251194       0.000000
      2 F                    -0.237331       0.000000
      3 F                    -0.178989       0.000000
      4 F                    -0.610100       0.000000
      5 F                    -0.224775       0.000000
  --------------------------------------------------------
  Sum of atomic charges =     0.000000

                    Cartesian Multipole Moments
 -----------------------------------------------------------------
    Charge (ESU x 10^10)
                 0.0000
    Dipole Moment (Debye)
         X       1.1829      Y       3.8584      Z      -1.2077
       Tot       4.2124
    Quadrupole Moments (Debye-Ang)
        XX     -26.0516     XY      -1.0319     YY      -8.3688
        XZ       1.2027     YZ      -1.6834     ZZ     -24.2506

 Total job time:  1986.25s(wall), 3291.56s(cpu)
        *  Thank you very much for using Q-Chem.  Have a nice day.  *
