 Q-Chem 4.3, Q-Chem, Inc., Pleasanton, CA (2015)
 Q-Chem 4.3.0 for Intel X86 Linux

User input:
--------------------------------------------------------------
$comment
XAS calculation for the 2b valence excited for water using cvs-adc(2)-x + 6-311+G* basis set
job 1 - determination of HF orbitals
$end

$molecule
0 1
6  -0.587922  2.927891  -0.163951
9  0.494514  2.332869  0.038646
9  -1.075485  3.535704  0.685181
9  -1.162208  0.45073  0.595272
9  -1.12964  2.715646  -1.211623
$end

$rem
jobtype      sp
sym_ignore true
exchange     hf
basis        6-31G*
unrestricted true
$end

--------------------------------------------------------------

    9    -435.3763980298      9.30E-06 Convergence criterion met
 Total energy in the final basis set = -435.3763980298
 Total job time:  42.99s(wall), 10.60s(cpu)
        *  Thank you very much for using Q-Chem.  Have a nice day.  *
 Q-Chem 4.3, Q-Chem, Inc., Pleasanton, CA (2015)
 Q-Chem 4.3.0 for Intel X86 Linux

User input:
--------------------------------------------------------------

$comment
job3 - cvs-adc(2) calculation
$end

$molecule
read
$end

$rem
mem_total 3000
mem_static 1500
sym_ignore true
scf_guess read
method cvs-adc(2)
basis 6-31G*
ee_singlets 20
cc_rest_occ 5                  !only excitations from the lowest N orbitals
unrestricted  true
max_scf_cycles 200
$end
--------------------------------------------------------------

             Standard Nuclear Orientation (Angstroms)
    I     Atom           X                Y                Z
 ----------------------------------------------------------------
    1      C      -0.5879220000     2.9278910000    -0.1639510000
    2      F       0.4945140000     2.3328690000     0.0386460000
    3      F      -1.0754850000     3.5357040000     0.6851810000
    4      F      -1.1622080000     0.4507300000     0.5952720000
    5      F      -1.1296400000     2.7156460000    -1.2116230000
 ----------------------------------------------------------------

    7    -435.3763982909      2.89E-09 Convergence criterion met
 Total energy in the final basis set = -435.3763982909
  Term symbol:  2 (-) A                                     R^2 =  5.12790e-14
  Excitation energy:                                             294.766905 eV
  Term symbol:  3 (-) A                                     R^2 =  5.50837e-14
  Excitation energy:                                             296.681243 eV
  Term symbol:  4 (-) A                                     R^2 =  8.22018e-14
  Excitation energy:                                             303.533790 eV
  Term symbol:  5 (-) A                                     R^2 =  4.44452e-14
  Excitation energy:                                             305.190148 eV
  Term symbol:  6 (-) A                                     R^2 =  9.92770e-14
  Excitation energy:                                             305.354733 eV
  Term symbol:  7 (-) A                                     R^2 =  3.92236e-14
  Excitation energy:                                             307.444771 eV
  Term symbol:  8 (-) A                                     R^2 =  9.91642e-14
  Excitation energy:                                             307.588044 eV
  Term symbol:  9 (-) A                                     R^2 =  6.20415e-14
  Excitation energy:                                             309.685273 eV
  Term symbol:  10 (-) A                                    R^2 =  1.20182e-13
  Excitation energy:                                             312.640763 eV
  Excited state 10 (A)                                             [converged]
  Term symbol:  11 (-) A                                    R^2 =  2.17836e-13
  Excitation energy:                                             314.153124 eV
  Excited state 11 (A)                                             [converged]
  Term symbol:  12 (-) A                                    R^2 =  1.83202e-13
  Excitation energy:                                             314.438774 eV
  Excited state 12 (A)                                             [converged]
  Term symbol:  13 (-) A                                    R^2 =  1.77865e-13
  Excitation energy:                                             314.861319 eV
  Excited state 13 (A)                                             [converged]
  Term symbol:  14 (-) A                                    R^2 =  1.39607e-13
  Excitation energy:                                             314.939529 eV
  Excited state 14 (A)                                             [converged]
  Term symbol:  15 (-) A                                    R^2 =  1.50653e-13
  Excitation energy:                                             315.482046 eV
  Excited state 15 (A)                                             [converged]
  Term symbol:  16 (-) A                                    R^2 =  1.24219e-11
  Excitation energy:                                             317.514168 eV
  Excited state 16 (A)                                             [converged]
  Term symbol:  17 (-) A                                    R^2 =  4.76109e-12
  Excitation energy:                                             318.377892 eV
  Excited state 17 (A)                                             [converged]
  Term symbol:  18 (-) A                                    R^2 =  1.13080e-09
  Excitation energy:                                             331.246489 eV
  Excited state 18 (A)                                             [converged]
  Term symbol:  19 (-) A                                    R^2 =  4.42793e-09
  Excitation energy:                                             331.430500 eV
  Excited state 19 (A)                                             [converged]
  Term symbol:  20 (-) A                                    R^2 =  1.42276e-07
  Excitation energy:                                             332.152442 eV
  Excited state 20 (A)                                             [converged]
  Term symbol:  21 (-) A                                    R^2 =  4.74724e-07
  Excitation energy:                                             332.281656 eV

                    Orbital Energies (a.u.)
 --------------------------------------------------------------

 Alpha MOs
 -- Occupied --
-26.579 -26.548 -26.507 -25.964 -11.745  -2.006  -1.902  -1.830
 -1.219  -1.141  -1.066  -1.048  -1.008  -0.886  -0.873  -0.870
 -0.821  -0.812  -0.329  -0.329  -0.320

 Beta MOs
 -- Occupied --
-26.579 -26.548 -26.507 -25.964 -11.745  -2.006  -1.902  -1.830
 -1.219  -1.141  -1.066  -1.048  -1.008  -0.886  -0.873  -0.870
 -0.821  -0.812  -0.329  -0.329  -0.320

          Ground-State Mulliken Net Atomic Charges

     Atom                 Charge (a.u.)    Spin (a.u.)
  --------------------------------------------------------
      1 C                     1.104023       0.000000
      2 F                    -0.130116       0.000000
      3 F                    -0.028337       0.000000
      4 F                    -0.860502       0.000000
      5 F                    -0.085067       0.000000
  --------------------------------------------------------
  Sum of atomic charges =     0.000000

                    Cartesian Multipole Moments
 -----------------------------------------------------------------
    Charge (ESU x 10^10)
                 0.0000
    Dipole Moment (Debye)
         X       2.1334      Y      10.3999      Z      -3.0185
       Tot      11.0372
    Quadrupole Moments (Debye-Ang)
        XX     -26.5378     XY      -5.5076     YY      13.9015
        XZ       3.0444     YZ      -2.9493     ZZ     -23.7614

 Total job time:  1828.46s(wall), 2990.28s(cpu)
        *  Thank you very much for using Q-Chem.  Have a nice day.  *
