 Q-Chem 4.3, Q-Chem, Inc., Pleasanton, CA (2015)
 Q-Chem 4.3.0 for Intel X86 Linux

User input:
--------------------------------------------------------------
$comment
XAS calculation for the 2b valence excited for water using cvs-adc(2)-x + 6-311+G* basis set
job 1 - determination of HF orbitals
$end

$molecule
0 1
6  -0.485074  2.991523  -0.212419
9  0.533741  2.403027  -0.014645
9  -1.121126  3.360254  0.734094
9  -1.27492  0.599628  0.632571
9  -1.116815  2.654653  -1.201533
$end

$rem
jobtype      sp
sym_ignore true
exchange     hf
basis        6-31G*
unrestricted true
$end

--------------------------------------------------------------

   11    -435.3530848043      6.39E-06 Convergence criterion met
 Total energy in the final basis set = -435.3530848043
 Total job time:  2.97s(wall), 13.06s(cpu)
        *  Thank you very much for using Q-Chem.  Have a nice day.  *
 Q-Chem 4.3, Q-Chem, Inc., Pleasanton, CA (2015)
 Q-Chem 4.3.0 for Intel X86 Linux

User input:
--------------------------------------------------------------

$comment
job3 - cvs-adc(2) calculation
$end

$molecule
read
$end

$rem
mem_total 3000
mem_static 1500
sym_ignore true
scf_guess read
method cvs-adc(2)
basis 6-31G*
ee_singlets 20
cc_rest_occ 5                  !only excitations from the lowest N orbitals
unrestricted  true
max_scf_cycles 200
$end
--------------------------------------------------------------

             Standard Nuclear Orientation (Angstroms)
    I     Atom           X                Y                Z
 ----------------------------------------------------------------
    1      C      -0.4850740000     2.9915230000    -0.2124190000
    2      F       0.5337410000     2.4030270000    -0.0146450000
    3      F      -1.1211260000     3.3602540000     0.7340940000
    4      F      -1.2749200000     0.5996280000     0.6325710000
    5      F      -1.1168150000     2.6546530000    -1.2015330000
 ----------------------------------------------------------------

    8    -435.3530851874      9.37E-09 Convergence criterion met
 Total energy in the final basis set = -435.3530851874
  Term symbol:  2 (-) A                                     R^2 =  2.25324e-14
  Excitation energy:                                             293.665117 eV
  Term symbol:  3 (-) A                                     R^2 =  2.33118e-14
  Excitation energy:                                             295.494554 eV
  Term symbol:  4 (-) A                                     R^2 =  9.90390e-14
  Excitation energy:                                             304.863776 eV
  Term symbol:  5 (-) A                                     R^2 =  8.42203e-14
  Excitation energy:                                             305.457550 eV
  Term symbol:  6 (-) A                                     R^2 =  7.65520e-14
  Excitation energy:                                             306.057376 eV
  Term symbol:  7 (-) A                                     R^2 =  9.91785e-14
  Excitation energy:                                             306.697400 eV
  Term symbol:  8 (-) A                                     R^2 =  5.76884e-14
  Excitation energy:                                             307.452700 eV
  Term symbol:  9 (-) A                                     R^2 =  7.84436e-14
  Excitation energy:                                             308.105824 eV
  Term symbol:  10 (-) A                                    R^2 =  7.99179e-14
  Excitation energy:                                             312.346396 eV
  Excited state 10 (A)                                             [converged]
  Term symbol:  11 (-) A                                    R^2 =  2.36029e-13
  Excitation energy:                                             314.035712 eV
  Excited state 11 (A)                                             [converged]
  Term symbol:  12 (-) A                                    R^2 =  1.85768e-13
  Excitation energy:                                             314.119231 eV
  Excited state 12 (A)                                             [converged]
  Term symbol:  13 (-) A                                    R^2 =  2.80567e-13
  Excitation energy:                                             314.191634 eV
  Excited state 13 (A)                                             [converged]
  Term symbol:  14 (-) A                                    R^2 =  2.97647e-13
  Excitation energy:                                             314.587102 eV
  Excited state 14 (A)                                             [converged]
  Term symbol:  15 (-) A                                    R^2 =  1.15895e-13
  Excitation energy:                                             314.699861 eV
  Excited state 15 (A)                                             [converged]
  Term symbol:  16 (-) A                                    R^2 =  2.25453e-12
  Excitation energy:                                             317.971130 eV
  Excited state 16 (A)                                             [converged]
  Term symbol:  17 (-) A                                    R^2 =  1.21765e-11
  Excitation energy:                                             318.679951 eV
  Excited state 17 (A)                                         [not converged]
  Term symbol:  18 (-) A                                    R^2 =  1.13212e-06
  Excitation energy:                                             332.033382 eV
  Excited state 18 (A)                                         [not converged]
  Term symbol:  19 (-) A                                    R^2 =  5.79827e-06
  Excitation energy:                                             332.219149 eV
  Excited state 19 (A)                                         [not converged]
  Term symbol:  20 (-) A                                    R^2 =  2.27257e-05
  Excitation energy:                                             332.232214 eV
  Excited state 20 (A)                                         [not converged]
  Term symbol:  21 (-) A                                    R^2 =  6.31592e-05
  Excitation energy:                                             332.382546 eV

                    Orbital Energies (a.u.)
 --------------------------------------------------------------

 Alpha MOs
 -- Occupied --
-26.549 -26.546 -26.536 -25.943 -11.747  -1.986  -1.877  -1.859
 -1.204  -1.130  -1.052  -1.049  -0.994  -0.879  -0.875  -0.845
 -0.837  -0.820  -0.312  -0.312  -0.310

 Beta MOs
 -- Occupied --
-26.549 -26.546 -26.536 -25.943 -11.747  -1.986  -1.877  -1.859
 -1.204  -1.130  -1.052  -1.049  -0.994  -0.879  -0.875  -0.845
 -0.837  -0.820  -0.312  -0.312  -0.310

          Ground-State Mulliken Net Atomic Charges

     Atom                 Charge (a.u.)    Spin (a.u.)
  --------------------------------------------------------
      1 C                     1.117126       0.000000
      2 F                    -0.051595       0.000000
      3 F                    -0.069422       0.000000
      4 F                    -0.897717       0.000000
      5 F                    -0.098392       0.000000
  --------------------------------------------------------
  Sum of atomic charges =     0.000000

                    Cartesian Multipole Moments
 -----------------------------------------------------------------
    Charge (ESU x 10^10)
                 0.0000
    Dipole Moment (Debye)
         X       3.5281      Y      10.3470      Z      -3.5507
       Tot      11.4942
    Quadrupole Moments (Debye-Ang)
        XX     -28.4989     XY      -2.3009     YY      15.7243
        XZ       3.6798     YZ      -4.4707     ZZ     -24.0567

 Total job time:  2128.07s(wall), 3451.10s(cpu)
        *  Thank you very much for using Q-Chem.  Have a nice day.  *
