 Q-Chem 4.3, Q-Chem, Inc., Pleasanton, CA (2015)
 Q-Chem 4.3.0 for Intel X86 Linux

User input:
--------------------------------------------------------------
$comment
XAS calculation for the 2b valence excited for water using cvs-adc(2)-x + 6-311+G* basis set
job 1 - determination of HF orbitals
$end

$molecule
0 1
6  -0.567196  2.677857  -0.108523
9  0.691584  2.59846  -0.107931
9  -1.043921  3.497912  0.682432
9  -1.493947  0.267491  0.825746
9  -1.032602  2.827748  -1.332633
$end

$rem
jobtype      sp
sym_ignore true
exchange     hf
basis        6-31G*
unrestricted true
$end

--------------------------------------------------------------

   11    -435.3649842420      9.91E-06 Convergence criterion met
 Total energy in the final basis set = -435.3649842420
 Total job time:  2.94s(wall), 13.19s(cpu)
        *  Thank you very much for using Q-Chem.  Have a nice day.  *
 Q-Chem 4.3, Q-Chem, Inc., Pleasanton, CA (2015)
 Q-Chem 4.3.0 for Intel X86 Linux

User input:
--------------------------------------------------------------

$comment
job3 - cvs-adc(2) calculation
$end

$molecule
read
$end

$rem
mem_total 3000
mem_static 1500
sym_ignore true
scf_guess read
method cvs-adc(2)
basis 6-31G*
ee_singlets 20
cc_rest_occ 5                  !only excitations from the lowest N orbitals
unrestricted  true
max_scf_cycles 200
$end
--------------------------------------------------------------

             Standard Nuclear Orientation (Angstroms)
    I     Atom           X                Y                Z
 ----------------------------------------------------------------
    1      C      -0.5671960000     2.6778570000    -0.1085230000
    2      F       0.6915840000     2.5984600000    -0.1079310000
    3      F      -1.0439210000     3.4979120000     0.6824320000
    4      F      -1.4939470000     0.2674910000     0.8257460000
    5      F      -1.0326020000     2.8277480000    -1.3326330000
 ----------------------------------------------------------------

    8    -435.3649858291      8.13E-09 Convergence criterion met
 Total energy in the final basis set = -435.3649858291
  Term symbol:  2 (-) A                                     R^2 =  8.55083e-14
  Excitation energy:                                             294.058889 eV
  Term symbol:  3 (-) A                                     R^2 =  8.54373e-14
  Excitation energy:                                             295.884652 eV
  Term symbol:  4 (-) A                                     R^2 =  2.49303e-13
  Excitation energy:                                             301.900020 eV
  Term symbol:  5 (-) A                                     R^2 =  9.03524e-13
  Excitation energy:                                             303.397647 eV
  Term symbol:  6 (-) A                                     R^2 =  1.39688e-13
  Excitation energy:                                             303.975497 eV
  Term symbol:  7 (-) A                                     R^2 =  1.07335e-13
  Excitation energy:                                             304.096881 eV
  Term symbol:  8 (-) A                                     R^2 =  5.24776e-14
  Excitation energy:                                             305.430034 eV
  Term symbol:  9 (-) A                                     R^2 =  1.13192e-13
  Excitation energy:                                             306.025160 eV
  Term symbol:  10 (-) A                                    R^2 =  4.55803e-14
  Excitation energy:                                             313.311643 eV
  Excited state 10 (A)                                             [converged]
  Term symbol:  11 (-) A                                    R^2 =  4.79158e-14
  Excitation energy:                                             313.743356 eV
  Excited state 11 (A)                                             [converged]
  Term symbol:  12 (-) A                                    R^2 =  2.18525e-13
  Excitation energy:                                             313.841397 eV
  Excited state 12 (A)                                             [converged]
  Term symbol:  13 (-) A                                    R^2 =  4.32721e-14
  Excitation energy:                                             314.080521 eV
  Excited state 13 (A)                                             [converged]
  Term symbol:  14 (-) A                                    R^2 =  4.68450e-14
  Excitation energy:                                             314.244924 eV
  Excited state 14 (A)                                             [converged]
  Term symbol:  15 (-) A                                    R^2 =  1.07844e-13
  Excitation energy:                                             314.411193 eV
  Excited state 15 (A)                                             [converged]
  Term symbol:  16 (-) A                                    R^2 =  1.46562e-13
  Excitation energy:                                             314.411933 eV
  Excited state 16 (A)                                             [converged]
  Term symbol:  17 (-) A                                    R^2 =  5.12834e-13
  Excitation energy:                                             315.578142 eV
  Excited state 17 (A)                                             [converged]
  Term symbol:  18 (-) A                                    R^2 =  6.19092e-12
  Excitation energy:                                             326.515400 eV
  Excited state 18 (A)                                             [converged]
  Term symbol:  19 (-) A                                    R^2 =  4.35132e-12
  Excitation energy:                                             326.602572 eV
  Excited state 19 (A)                                         [not converged]
  Term symbol:  20 (-) A                                    R^2 =  7.27333e-04
  Excitation energy:                                             331.217646 eV
  Excited state 20 (A)                                         [not converged]
  Term symbol:  21 (-) A                                    R^2 =  3.88051e-04
  Excitation energy:                                             331.351054 eV

                    Orbital Energies (a.u.)
 --------------------------------------------------------------

 Alpha MOs
 -- Occupied --
-26.513 -26.503 -26.480 -26.130 -11.719  -1.909  -1.814  -1.771
 -1.344  -1.091  -0.987  -0.978  -0.930  -0.838  -0.825  -0.808
 -0.789  -0.777  -0.462  -0.462  -0.387

 Beta MOs
 -- Occupied --
-26.513 -26.503 -26.480 -26.130 -11.719  -1.909  -1.814  -1.771
 -1.344  -1.091  -0.987  -0.978  -0.930  -0.838  -0.825  -0.808
 -0.789  -0.777  -0.462  -0.462  -0.387

          Ground-State Mulliken Net Atomic Charges

     Atom                 Charge (a.u.)    Spin (a.u.)
  --------------------------------------------------------
      1 C                     1.131128       0.000000
      2 F                    -0.177115       0.000000
      3 F                    -0.145303       0.000000
      4 F                    -0.574158       0.000000
      5 F                    -0.234552       0.000000
  --------------------------------------------------------
  Sum of atomic charges =     0.000000

                    Cartesian Multipole Moments
 -----------------------------------------------------------------
    Charge (ESU x 10^10)
                 0.0000
    Dipole Moment (Debye)
         X       2.5057      Y       6.4270      Z      -2.1344
       Tot       7.2209
    Quadrupole Moments (Debye-Ang)
        XX     -28.6419     XY      -2.6574     YY      -3.8989
        XZ       3.0103     YZ      -0.5567     ZZ     -25.5887

 Total job time:  1950.94s(wall), 3175.06s(cpu)
        *  Thank you very much for using Q-Chem.  Have a nice day.  *
