 Q-Chem 4.3, Q-Chem, Inc., Pleasanton, CA (2015)
 Q-Chem 4.3.0 for Intel X86 Linux

User input:
--------------------------------------------------------------
$comment
XAS calculation for the 2b valence excited for water using cvs-adc(2)-x + 6-311+G* basis set
job 1 - determination of HF orbitals
$end

$molecule
0 1
6  -0.548396  2.759862  -0.194533
9  0.580629  2.319718  0.006877
9  -1.143865  3.250449  0.790974
9  -1.195019  1.033334  0.499228
9  -1.131516  2.533372  -1.181231
$end

$rem
jobtype      sp
sym_ignore true
exchange     hf
basis        6-31G*
unrestricted true
$end

--------------------------------------------------------------

    8    -435.4397548302      7.76E-06 Convergence criterion met
 Total energy in the final basis set = -435.4397548302
 Total job time:  2.40s(wall), 8.94s(cpu)
        *  Thank you very much for using Q-Chem.  Have a nice day.  *
 Q-Chem 4.3, Q-Chem, Inc., Pleasanton, CA (2015)
 Q-Chem 4.3.0 for Intel X86 Linux

User input:
--------------------------------------------------------------

$comment
job3 - cvs-adc(2) calculation
$end

$molecule
read
$end

$rem
mem_total 3000
mem_static 1500
sym_ignore true
scf_guess read
method cvs-adc(2)
basis 6-31G*
ee_singlets 20
cc_rest_occ 5                  !only excitations from the lowest N orbitals
unrestricted  true
max_scf_cycles 200
$end
--------------------------------------------------------------

             Standard Nuclear Orientation (Angstroms)
    I     Atom           X                Y                Z
 ----------------------------------------------------------------
    1      C      -0.5483960000     2.7598620000    -0.1945330000
    2      F       0.5806290000     2.3197180000     0.0068770000
    3      F      -1.1438650000     3.2504490000     0.7909740000
    4      F      -1.1950190000     1.0333340000     0.4992280000
    5      F      -1.1315160000     2.5333720000    -1.1812310000
 ----------------------------------------------------------------

    6    -435.4397549551      5.82E-09 Convergence criterion met
 Total energy in the final basis set = -435.4397549551
  Term symbol:  2 (-) A                                     R^2 =  1.27612e-11
  Excitation energy:                                             294.731484 eV
  Term symbol:  3 (-) A                                     R^2 =  3.98181e-12
  Excitation energy:                                             296.581112 eV
  Term symbol:  4 (-) A                                     R^2 =  9.31786e-12
  Excitation energy:                                             303.810023 eV
  Term symbol:  5 (-) A                                     R^2 =  1.49230e-12
  Excitation energy:                                             304.786245 eV
  Term symbol:  6 (-) A                                     R^2 =  5.54487e-12
  Excitation energy:                                             305.858627 eV
  Term symbol:  7 (-) A                                     R^2 =  5.67530e-12
  Excitation energy:                                             306.831351 eV
  Term symbol:  8 (-) A                                     R^2 =  5.00382e-13
  Excitation energy:                                             306.929618 eV
  Term symbol:  9 (-) A                                     R^2 =  6.87217e-12
  Excitation energy:                                             308.816100 eV
  Term symbol:  10 (-) A                                    R^2 =  4.40461e-12
  Excitation energy:                                             311.901884 eV
  Excited state 10 (A)                                             [converged]
  Term symbol:  11 (-) A                                    R^2 =  2.70745e-12
  Excitation energy:                                             313.545467 eV
  Excited state 11 (A)                                             [converged]
  Term symbol:  12 (-) A                                    R^2 =  2.28646e-12
  Excitation energy:                                             314.242088 eV
  Excited state 12 (A)                                             [converged]
  Term symbol:  13 (-) A                                    R^2 =  9.05576e-13
  Excitation energy:                                             314.494874 eV
  Excited state 13 (A)                                             [converged]
  Term symbol:  14 (-) A                                    R^2 =  2.06821e-12
  Excitation energy:                                             314.608874 eV
  Excited state 14 (A)                                             [converged]
  Term symbol:  15 (-) A                                    R^2 =  6.69433e-13
  Excitation energy:                                             315.021135 eV
  Excited state 15 (A)                                             [converged]
  Term symbol:  16 (-) A                                    R^2 =  8.57007e-12
  Excitation energy:                                             319.484839 eV
  Excited state 16 (A)                                             [converged]
  Term symbol:  17 (-) A                                    R^2 =  1.29386e-11
  Excitation energy:                                             319.961286 eV
  Excited state 17 (A)                                             [converged]
  Term symbol:  18 (-) A                                    R^2 =  1.15300e-07
  Excitation energy:                                             330.997261 eV
  Excited state 18 (A)                                             [converged]
  Term symbol:  19 (-) A                                    R^2 =  3.07955e-07
  Excitation energy:                                             331.182600 eV
  Excited state 19 (A)                                         [not converged]
  Term symbol:  20 (-) A                                    R^2 =  8.69785e-06
  Excitation energy:                                             331.780371 eV
  Excited state 20 (A)                                         [not converged]
  Term symbol:  21 (-) A                                    R^2 =  1.24255e-05
  Excitation energy:                                             331.923984 eV

                    Orbital Energies (a.u.)
 --------------------------------------------------------------

 Alpha MOs
 -- Occupied --
-26.501 -26.471 -26.459 -26.060 -11.686  -1.925  -1.821  -1.780
 -1.329  -1.076  -0.993  -0.986  -0.932  -0.819  -0.815  -0.806
 -0.782  -0.761  -0.424  -0.423  -0.418

 Beta MOs
 -- Occupied --
-26.501 -26.471 -26.459 -26.060 -11.686  -1.925  -1.821  -1.780
 -1.329  -1.076  -0.993  -0.986  -0.932  -0.819  -0.815  -0.806
 -0.782  -0.761  -0.424  -0.423  -0.418

          Ground-State Mulliken Net Atomic Charges

     Atom                 Charge (a.u.)    Spin (a.u.)
  --------------------------------------------------------
      1 C                     1.185963       0.000000
      2 F                    -0.159668       0.000000
      3 F                    -0.186443       0.000000
      4 F                    -0.760262       0.000000
      5 F                    -0.079591       0.000000
  --------------------------------------------------------
  Sum of atomic charges =     0.000000

                    Cartesian Multipole Moments
 -----------------------------------------------------------------
    Charge (ESU x 10^10)
                 0.0000
    Dipole Moment (Debye)
         X       2.1810      Y       5.9667      Z      -2.7803
       Tot       6.9346
    Quadrupole Moments (Debye-Ang)
        XX     -26.9803     XY      -0.7433     YY       0.1564
        XZ       2.7039     YZ      -5.0570     ZZ     -23.5746

 Total job time:  2018.16s(wall), 3221.30s(cpu)
        *  Thank you very much for using Q-Chem.  Have a nice day.  *
