 Q-Chem 4.3, Q-Chem, Inc., Pleasanton, CA (2015)
 Q-Chem 4.3.0 for Intel X86 Linux

User input:
--------------------------------------------------------------
$comment
XAS calculation for the 2b valence excited for water using cvs-adc(2)-x + 6-311+G* basis set
job 1 - determination of HF orbitals
$end

$molecule
0 1
6  -0.436169  2.736097  -0.248329
9  0.802342  2.751888  -0.203173
9  -1.030005  3.322333  0.717904
9  -1.784156  0.235812  0.999905
9  -0.935025  2.830787  -1.359423
$end

$rem
jobtype      sp
sym_ignore true
exchange     hf
basis        6-31G*
unrestricted true
$end

--------------------------------------------------------------

   12    -435.3375065372      6.22E-06 Convergence criterion met
 Total energy in the final basis set = -435.3375065372
 Total job time:  3.09s(wall), 13.65s(cpu)
        *  Thank you very much for using Q-Chem.  Have a nice day.  *
 Q-Chem 4.3, Q-Chem, Inc., Pleasanton, CA (2015)
 Q-Chem 4.3.0 for Intel X86 Linux

User input:
--------------------------------------------------------------

$comment
job3 - cvs-adc(2) calculation
$end

$molecule
read
$end

$rem
mem_total 3000
mem_static 1500
sym_ignore true
scf_guess read
method cvs-adc(2)
basis 6-31G*
ee_singlets 20
cc_rest_occ 5                  !only excitations from the lowest N orbitals
unrestricted  true
max_scf_cycles 200
$end
--------------------------------------------------------------

             Standard Nuclear Orientation (Angstroms)
    I     Atom           X                Y                Z
 ----------------------------------------------------------------
    1      C      -0.4361690000     2.7360970000    -0.2483290000
    2      F       0.8023420000     2.7518880000    -0.2031730000
    3      F      -1.0300050000     3.3223330000     0.7179040000
    4      F      -1.7841560000     0.2358120000     0.9999050000
    5      F      -0.9350250000     2.8307870000    -1.3594230000
 ----------------------------------------------------------------

    9    -435.3375066785      5.17E-09 Convergence criterion met
 Total energy in the final basis set = -435.3375066785
  Term symbol:  2 (-) A                                     R^2 =  1.02368e-13
  Excitation energy:                                             294.262414 eV
  Term symbol:  3 (-) A                                     R^2 =  5.76007e-14
  Excitation energy:                                             296.127539 eV
  Term symbol:  4 (-) A                                     R^2 =  7.05354e-14
  Excitation energy:                                             302.947201 eV
  Term symbol:  5 (-) A                                     R^2 =  4.15007e-13
  Excitation energy:                                             303.965096 eV
  Term symbol:  6 (-) A                                     R^2 =  9.55070e-14
  Excitation energy:                                             304.609600 eV
  Term symbol:  7 (-) A                                     R^2 =  9.43159e-14
  Excitation energy:                                             304.852927 eV
  Term symbol:  8 (-) A                                     R^2 =  5.21982e-13
  Excitation energy:                                             305.978759 eV
  Term symbol:  9 (-) A                                     R^2 =  7.94920e-14
  Excitation energy:                                             306.640069 eV
  Term symbol:  10 (-) A                                    R^2 =  1.65000e-13
  Excitation energy:                                             313.071877 eV
  Excited state 10 (A)                                             [converged]
  Term symbol:  11 (-) A                                    R^2 =  2.39847e-13
  Excitation energy:                                             313.731572 eV
  Excited state 11 (A)                                             [converged]
  Term symbol:  12 (-) A                                    R^2 =  2.67879e-13
  Excitation energy:                                             313.942837 eV
  Excited state 12 (A)                                             [converged]
  Term symbol:  13 (-) A                                    R^2 =  6.83635e-14
  Excitation energy:                                             314.246066 eV
  Excited state 13 (A)                                             [converged]
  Term symbol:  14 (-) A                                    R^2 =  2.18226e-13
  Excitation energy:                                             314.496747 eV
  Excited state 14 (A)                                             [converged]
  Term symbol:  15 (-) A                                    R^2 =  1.16596e-13
  Excitation energy:                                             314.696466 eV
  Excited state 15 (A)                                             [converged]
  Term symbol:  16 (-) A                                    R^2 =  7.28950e-14
  Excitation energy:                                             314.756553 eV
  Excited state 16 (A)                                             [converged]
  Term symbol:  17 (-) A                                    R^2 =  4.04984e-13
  Excitation energy:                                             315.664094 eV
  Excited state 17 (A)                                             [converged]
  Term symbol:  18 (-) A                                    R^2 =  4.31948e-12
  Excitation energy:                                             325.425699 eV
  Excited state 18 (A)                                             [converged]
  Term symbol:  19 (-) A                                    R^2 =  1.70734e-12
  Excitation energy:                                             325.476636 eV
  Excited state 19 (A)                                         [not converged]
  Term symbol:  20 (-) A                                    R^2 =  2.02450e-04
  Excitation energy:                                             331.473098 eV
  Excited state 20 (A)                                         [not converged]
  Term symbol:  21 (-) A                                    R^2 =  3.71386e-04
  Excitation energy:                                             331.628472 eV

                    Orbital Energies (a.u.)
 --------------------------------------------------------------

 Alpha MOs
 -- Occupied --
-26.553 -26.547 -26.519 -26.025 -11.750  -1.958  -1.862  -1.826
 -1.259  -1.129  -1.035  -1.026  -0.976  -0.873  -0.870  -0.850
 -0.829  -0.816  -0.375  -0.375  -0.321

 Beta MOs
 -- Occupied --
-26.553 -26.547 -26.519 -26.025 -11.750  -1.958  -1.862  -1.826
 -1.259  -1.129  -1.035  -1.026  -0.976  -0.873  -0.870  -0.850
 -0.829  -0.816  -0.375  -0.375  -0.321

          Ground-State Mulliken Net Atomic Charges

     Atom                 Charge (a.u.)    Spin (a.u.)
  --------------------------------------------------------
      1 C                     1.157689       0.000000
      2 F                    -0.146010       0.000000
      3 F                    -0.164363       0.000000
      4 F                    -0.729382       0.000000
      5 F                    -0.117935       0.000000
  --------------------------------------------------------
  Sum of atomic charges =     0.000000

                    Cartesian Multipole Moments
 -----------------------------------------------------------------
    Charge (ESU x 10^10)
                 0.0000
    Dipole Moment (Debye)
         X       4.6558      Y       8.4497      Z      -4.4695
       Tot      10.6326
    Quadrupole Moments (Debye-Ang)
        XX     -33.3394     XY      -2.3371     YY       2.3186
        XZ       6.5653     YZ      -3.8448     ZZ     -26.1032

 Total job time:  1922.16s(wall), 3192.05s(cpu)
        *  Thank you very much for using Q-Chem.  Have a nice day.  *
