 Q-Chem 4.3, Q-Chem, Inc., Pleasanton, CA (2015)
 Q-Chem 4.3.0 for Intel X86 Linux

User input:
--------------------------------------------------------------
$comment
XAS calculation for the 2b valence excited for water using cvs-adc(2)-x + 6-311+G* basis set
job 1 - determination of HF orbitals
$end

$molecule
0 1
6  -0.6425  2.452092  -0.06213
9  0.592205  2.335314  0.006328
9  -1.133623  3.285511  0.784793
9  -1.140984  1.149754  0.439072
9  -1.132173  2.550266  -1.194079
$end

$rem
jobtype      sp
sym_ignore true
exchange     hf
basis        6-31G*
unrestricted true
$end

--------------------------------------------------------------

    8    -435.6141315670      5.13E-06 Convergence criterion met
 Total energy in the final basis set = -435.6141315670
 Total job time:  2.34s(wall), 9.19s(cpu)
        *  Thank you very much for using Q-Chem.  Have a nice day.  *
 Q-Chem 4.3, Q-Chem, Inc., Pleasanton, CA (2015)
 Q-Chem 4.3.0 for Intel X86 Linux

User input:
--------------------------------------------------------------

$comment
job3 - cvs-adc(2) calculation
$end

$molecule
read
$end

$rem
mem_total 3000
mem_static 1500
sym_ignore true
scf_guess read
method cvs-adc(2)
basis 6-31G*
ee_singlets 20
cc_rest_occ 5                  !only excitations from the lowest N orbitals
unrestricted  true
max_scf_cycles 200
$end
--------------------------------------------------------------

             Standard Nuclear Orientation (Angstroms)
    I     Atom           X                Y                Z
 ----------------------------------------------------------------
    1      C      -0.6425000000     2.4520920000    -0.0621300000
    2      F       0.5922050000     2.3353140000     0.0063280000
    3      F      -1.1336230000     3.2855110000     0.7847930000
    4      F      -1.1409840000     1.1497540000     0.4390720000
    5      F      -1.1321730000     2.5502660000    -1.1940790000
 ----------------------------------------------------------------

    6    -435.6141316337      3.60E-09 Convergence criterion met
 Total energy in the final basis set = -435.6141316337
  Term symbol:  2 (-) A                                     R^2 =  7.88800e-13
  Excitation energy:                                             298.577797 eV
  Term symbol:  3 (-) A                                     R^2 =  2.40172e-13
  Excitation energy:                                             300.689758 eV
  Term symbol:  4 (-) A                                     R^2 =  1.08480e-12
  Excitation energy:                                             302.663009 eV
  Term symbol:  5 (-) A                                     R^2 =  4.68548e-13
  Excitation energy:                                             303.920581 eV
  Term symbol:  6 (-) A                                     R^2 =  2.09052e-13
  Excitation energy:                                             304.236390 eV
  Term symbol:  7 (-) A                                     R^2 =  5.30402e-13
  Excitation energy:                                             304.897036 eV
  Term symbol:  8 (-) A                                     R^2 =  3.72232e-13
  Excitation energy:                                             306.107587 eV
  Term symbol:  9 (-) A                                     R^2 =  5.69478e-13
  Excitation energy:                                             306.482197 eV
  Term symbol:  10 (-) A                                    R^2 =  9.66501e-13
  Excitation energy:                                             312.253598 eV
  Excited state 10 (A)                                             [converged]
  Term symbol:  11 (-) A                                    R^2 =  1.17347e-13
  Excitation energy:                                             313.253174 eV
  Excited state 11 (A)                                             [converged]
  Term symbol:  12 (-) A                                    R^2 =  2.09657e-13
  Excitation energy:                                             313.767049 eV
  Excited state 12 (A)                                             [converged]
  Term symbol:  13 (-) A                                    R^2 =  1.73336e-13
  Excitation energy:                                             313.936861 eV
  Excited state 13 (A)                                             [converged]
  Term symbol:  14 (-) A                                    R^2 =  2.87159e-13
  Excitation energy:                                             314.158719 eV
  Excited state 14 (A)                                             [converged]
  Term symbol:  15 (-) A                                    R^2 =  5.68049e-13
  Excitation energy:                                             314.350078 eV
  Excited state 15 (A)                                             [converged]
  Term symbol:  16 (-) A                                    R^2 =  5.19459e-13
  Excitation energy:                                             315.058034 eV
  Excited state 16 (A)                                             [converged]
  Term symbol:  17 (-) A                                    R^2 =  1.17861e-12
  Excitation energy:                                             315.480077 eV
  Excited state 17 (A)                                         [not converged]
  Term symbol:  18 (-) A                                    R^2 =  3.94785e-05
  Excitation energy:                                             330.391103 eV
  Excited state 18 (A)                                         [not converged]
  Term symbol:  19 (-) A                                    R^2 =  1.21507e-05
  Excitation energy:                                             330.420859 eV
  Excited state 19 (A)                                         [not converged]
  Term symbol:  20 (-) A                                    R^2 =  2.19262e-04
  Excitation energy:                                             330.487001 eV
  Excited state 20 (A)                                         [not converged]
  Term symbol:  21 (-) A                                    R^2 =  3.94581e-05
  Excitation energy:                                             330.511545 eV

                    Orbital Energies (a.u.)
 --------------------------------------------------------------

 Alpha MOs
 -- Occupied --
-26.409 -26.406 -26.387 -26.294 -11.613  -1.840  -1.737  -1.707
 -1.571  -1.017  -0.919  -0.912  -0.882  -0.772  -0.764  -0.738
 -0.725  -0.698  -0.637  -0.626  -0.624

 Beta MOs
 -- Occupied --
-26.409 -26.406 -26.387 -26.294 -11.613  -1.840  -1.737  -1.707
 -1.571  -1.017  -0.919  -0.912  -0.882  -0.772  -0.764  -0.738
 -0.725  -0.698  -0.637  -0.626  -0.624

          Ground-State Mulliken Net Atomic Charges

     Atom                 Charge (a.u.)    Spin (a.u.)
  --------------------------------------------------------
      1 C                     1.281984       0.000000
      2 F                    -0.254658       0.000000
      3 F                    -0.304991       0.000000
      4 F                    -0.473494       0.000000
      5 F                    -0.248842       0.000000
  --------------------------------------------------------
  Sum of atomic charges =     0.000000

                    Cartesian Multipole Moments
 -----------------------------------------------------------------
    Charge (ESU x 10^10)
                 0.0000
    Dipole Moment (Debye)
         X       0.6915      Y       1.3821      Z      -0.8067
       Tot       1.7434
    Quadrupole Moments (Debye-Ang)
        XX     -25.4757     XY       0.2716     YY     -19.2658
        XZ       0.7862     YZ      -1.5679     ZZ     -24.5451

 Total job time:  2125.88s(wall), 3481.42s(cpu)
        *  Thank you very much for using Q-Chem.  Have a nice day.  *
