 Q-Chem 4.3, Q-Chem, Inc., Pleasanton, CA (2015)
 Q-Chem 4.3.0 for Intel X86 Linux

User input:
--------------------------------------------------------------
$comment
XAS calculation for the 2b valence excited for water using cvs-adc(2)-x + 6-311+G* basis set
job 1 - determination of HF orbitals
$end

$molecule
0 1
6  -0.703125  2.369923  -0.016616
9  0.602353  2.341171  0.004583
9  -1.129526  3.295788  0.781976
9  -1.125599  1.185047  0.421829
9  -1.130312  2.556139  -1.19824
$end

$rem
jobtype      sp
sym_ignore true
exchange     hf
basis        6-31G*
unrestricted true
$end

--------------------------------------------------------------

    8    -435.6433017027      3.50E-06 Convergence criterion met
 Total energy in the final basis set = -435.6433017027
 Total job time:  2.17s(wall), 11.29s(cpu)
        *  Thank you very much for using Q-Chem.  Have a nice day.  *
 Q-Chem 4.3, Q-Chem, Inc., Pleasanton, CA (2015)
 Q-Chem 4.3.0 for Intel X86 Linux

User input:
--------------------------------------------------------------

$comment
job3 - cvs-adc(2) calculation
$end

$molecule
read
$end

$rem
mem_total 3000
mem_static 1500
sym_ignore true
scf_guess read
method cvs-adc(2)
basis 6-31G*
ee_singlets 20
cc_rest_occ 5                  !only excitations from the lowest N orbitals
unrestricted  true
max_scf_cycles 200
$end
--------------------------------------------------------------

             Standard Nuclear Orientation (Angstroms)
    I     Atom           X                Y                Z
 ----------------------------------------------------------------
    1      C      -0.7031250000     2.3699230000    -0.0166160000
    2      F       0.6023530000     2.3411710000     0.0045830000
    3      F      -1.1295260000     3.2957880000     0.7819760000
    4      F      -1.1255990000     1.1850470000     0.4218290000
    5      F      -1.1303120000     2.5561390000    -1.1982400000
 ----------------------------------------------------------------

    5    -435.6433017173      2.59E-09 Convergence criterion met
 Total energy in the final basis set = -435.6433017173
  Term symbol:  2 (-) A                                     R^2 =  2.99649e-13
  Excitation energy:                                             300.973370 eV
  Term symbol:  3 (-) A                                     R^2 =  1.09357e-12
  Excitation energy:                                             301.680689 eV
  Term symbol:  4 (-) A                                     R^2 =  1.62380e-12
  Excitation energy:                                             302.225449 eV
  Term symbol:  5 (-) A                                     R^2 =  2.04092e-13
  Excitation energy:                                             303.118191 eV
  Term symbol:  6 (-) A                                     R^2 =  2.06444e-13
  Excitation energy:                                             303.839594 eV
  Term symbol:  7 (-) A                                     R^2 =  3.92232e-13
  Excitation energy:                                             304.057891 eV
  Term symbol:  8 (-) A                                     R^2 =  9.25877e-13
  Excitation energy:                                             304.402523 eV
  Term symbol:  9 (-) A                                     R^2 =  1.10501e-12
  Excitation energy:                                             306.641208 eV
  Term symbol:  10 (-) A                                    R^2 =  4.00990e-13
  Excitation energy:                                             313.116713 eV
  Excited state 10 (A)                                             [converged]
  Term symbol:  11 (-) A                                    R^2 =  2.80642e-13
  Excitation energy:                                             313.556986 eV
  Excited state 11 (A)                                             [converged]
  Term symbol:  12 (-) A                                    R^2 =  9.50208e-13
  Excitation energy:                                             313.662009 eV
  Excited state 12 (A)                                             [converged]
  Term symbol:  13 (-) A                                    R^2 =  8.48585e-13
  Excitation energy:                                             313.809166 eV
  Excited state 13 (A)                                             [converged]
  Term symbol:  14 (-) A                                    R^2 =  8.82513e-13
  Excitation energy:                                             313.817410 eV
  Excited state 14 (A)                                             [converged]
  Term symbol:  15 (-) A                                    R^2 =  3.69437e-13
  Excitation energy:                                             313.959842 eV
  Excited state 15 (A)                                             [converged]
  Term symbol:  16 (-) A                                    R^2 =  6.52569e-13
  Excitation energy:                                             314.058547 eV
  Excited state 16 (A)                                             [converged]
  Term symbol:  17 (-) A                                    R^2 =  5.09881e-13
  Excitation energy:                                             314.289999 eV
  Excited state 17 (A)                                             [converged]
  Term symbol:  18 (-) A                                    R^2 =  3.27401e-07
  Excitation energy:                                             330.160736 eV
  Excited state 18 (A)                                             [converged]
  Term symbol:  19 (-) A                                    R^2 =  7.11406e-08
  Excitation energy:                                             330.183634 eV
  Excited state 19 (A)                                             [converged]
  Term symbol:  20 (-) A                                    R^2 =  5.18673e-07
  Excitation energy:                                             330.218340 eV
  Excited state 20 (A)                                             [converged]
  Term symbol:  21 (-) A                                    R^2 =  3.54373e-07
  Excitation energy:                                             330.241491 eV

                    Orbital Energies (a.u.)
 --------------------------------------------------------------

 Alpha MOs
 -- Occupied --
-26.387 -26.378 -26.371 -26.360 -11.604  -1.817  -1.696  -1.680
 -1.660  -1.006  -0.895  -0.892  -0.886  -0.760  -0.759  -0.712
 -0.705  -0.696  -0.677  -0.671  -0.666

 Beta MOs
 -- Occupied --
-26.387 -26.378 -26.371 -26.360 -11.604  -1.817  -1.696  -1.680
 -1.660  -1.006  -0.895  -0.892  -0.886  -0.760  -0.759  -0.712
 -0.705  -0.696  -0.677  -0.671  -0.666

          Ground-State Mulliken Net Atomic Charges

     Atom                 Charge (a.u.)    Spin (a.u.)
  --------------------------------------------------------
      1 C                     1.308133       0.000000
      2 F                    -0.333542       0.000000
      3 F                    -0.320956       0.000000
      4 F                    -0.358656       0.000000
      5 F                    -0.294979       0.000000
  --------------------------------------------------------
  Sum of atomic charges =     0.000000

                    Cartesian Multipole Moments
 -----------------------------------------------------------------
    Charge (ESU x 10^10)
                 0.0000
    Dipole Moment (Debye)
         X      -0.0705      Y       0.2776      Z      -0.2280
       Tot       0.3661
    Quadrupole Moments (Debye-Ang)
        XX     -24.8610     XY      -0.4298     YY     -23.7758
        XZ       0.2217     YZ      -0.4885     ZZ     -24.7488

 Total job time:  1932.96s(wall), 3191.82s(cpu)
        *  Thank you very much for using Q-Chem.  Have a nice day.  *
