 Q-Chem 4.3, Q-Chem, Inc., Pleasanton, CA (2015)
 Q-Chem 4.3.0 for Intel X86 Linux

User input:
--------------------------------------------------------------
$comment
XAS calculation for the 2b valence excited for water using cvs-adc(2)-x + 6-311+G* basis set
job 1 - determination of HF orbitals
$end

$molecule
0 1
6  -0.444365  3.008959  -0.25112
9  0.512644  2.383026  -0.006244
9  -1.137812  3.333979  0.755832
9  -1.256955  0.663102  0.609599
9  -1.122815  2.62718  -1.183395
$end

$rem
jobtype      sp
sym_ignore true
exchange     hf
basis        6-31G*
unrestricted true
$end

--------------------------------------------------------------

   12    -435.3291873593      5.72E-06 Convergence criterion met
 Total energy in the final basis set = -435.3291873593
 Total job time:  3.19s(wall), 15.78s(cpu)
        *  Thank you very much for using Q-Chem.  Have a nice day.  *
 Q-Chem 4.3, Q-Chem, Inc., Pleasanton, CA (2015)
 Q-Chem 4.3.0 for Intel X86 Linux

User input:
--------------------------------------------------------------

$comment
job3 - cvs-adc(2) calculation
$end

$molecule
read
$end

$rem
mem_total 3000
mem_static 1500
sym_ignore true
scf_guess read
method cvs-adc(2)
basis 6-31G*
ee_singlets 20
cc_rest_occ 5                  !only excitations from the lowest N orbitals
unrestricted  true
max_scf_cycles 200
$end
--------------------------------------------------------------

             Standard Nuclear Orientation (Angstroms)
    I     Atom           X                Y                Z
 ----------------------------------------------------------------
    1      C      -0.4443650000     3.0089590000    -0.2511200000
    2      F       0.5126440000     2.3830260000    -0.0062440000
    3      F      -1.1378120000     3.3339790000     0.7558320000
    4      F      -1.2569550000     0.6631020000     0.6095990000
    5      F      -1.1228150000     2.6271800000    -1.1833950000
 ----------------------------------------------------------------

   10    -435.3291874494      5.20E-09 Convergence criterion met
 Total energy in the final basis set = -435.3291874494
  Term symbol:  2 (-) A                                     R^2 =  1.26938e-05
  Excitation energy:                                             293.151896 eV
  Term symbol:  3 (-) A                                     R^2 =  1.45483e-05
  Excitation energy:                                             294.911829 eV
  Term symbol:  4 (-) A                                     R^2 =  3.63244e-05
  Excitation energy:                                             303.557664 eV
  Term symbol:  5 (-) A                                     R^2 =  1.32111e-04
  Excitation energy:                                             305.056547 eV
  Term symbol:  6 (-) A                                     R^2 =  2.58232e-04
  Excitation energy:                                             305.654053 eV
  Term symbol:  7 (-) A                                     R^2 =  2.19203e-05
  Excitation energy:                                             306.327780 eV
  Term symbol:  8 (-) A                                     R^2 =  4.65380e-05
  Excitation energy:                                             307.027229 eV
  Term symbol:  9 (-) A                                     R^2 =  3.18769e-05
  Excitation energy:                                             308.016641 eV
  Term symbol:  10 (-) A                                    R^2 =  6.75328e-05
  Excitation energy:                                             312.093004 eV
  Excited state 10 (A)                                         [not converged]
  Term symbol:  11 (-) A                                    R^2 =  5.86347e-05
  Excitation energy:                                             313.434634 eV
  Excited state 11 (A)                                         [not converged]
  Term symbol:  12 (-) A                                    R^2 =  4.86959e-05
  Excitation energy:                                             313.685288 eV
  Excited state 12 (A)                                         [not converged]
  Term symbol:  13 (-) A                                    R^2 =  3.87487e-05
  Excitation energy:                                             313.722640 eV
  Excited state 13 (A)                                         [not converged]
  Term symbol:  14 (-) A                                    R^2 =  1.10311e-05
  Excitation energy:                                             313.958596 eV
  Excited state 14 (A)                                         [not converged]
  Term symbol:  15 (-) A                                    R^2 =  3.72831e-05
  Excitation energy:                                             314.399049 eV
  Excited state 15 (A)                                         [not converged]
  Term symbol:  16 (-) A                                    R^2 =  1.10575e-05
  Excitation energy:                                             317.841043 eV
  Excited state 16 (A)                                         [not converged]
  Term symbol:  17 (-) A                                    R^2 =  1.15865e-05
  Excitation energy:                                             318.452715 eV
  Excited state 17 (A)                                         [not converged]
  Term symbol:  18 (-) A                                    R^2 =  1.78303e-02
  Excitation energy:                                             323.512537 eV
  Excited state 18 (A)                                         [not converged]
  Term symbol:  19 (-) A                                    R^2 =  3.39266e-03
  Excitation energy:                                             323.516858 eV
  Excited state 19 (A)                                         [not converged]
  Term symbol:  20 (-) A                                    R^2 =  2.07465e-02
  Excitation energy:                                             323.762168 eV
  Excited state 20 (A)                                         [not converged]
  Term symbol:  21 (-) A                                    R^2 =  8.07710e-02
  Excitation energy:                                             323.808843 eV

                    Orbital Energies (a.u.)
 --------------------------------------------------------------

 Alpha MOs
 -- Occupied --
-26.554 -26.534 -26.512 -25.957 -11.735  -1.979  -1.869  -1.819
 -1.216  -1.123  -1.038  -1.031  -0.981  -0.867  -0.857  -0.834
 -0.812  -0.803  -0.325  -0.325  -0.316

 Beta MOs
 -- Occupied --
-26.554 -26.534 -26.512 -25.957 -11.735  -1.979  -1.869  -1.819
 -1.216  -1.123  -1.038  -1.031  -0.981  -0.867  -0.857  -0.834
 -0.812  -0.803  -0.325  -0.325  -0.316

          Ground-State Mulliken Net Atomic Charges

     Atom                 Charge (a.u.)    Spin (a.u.)
  --------------------------------------------------------
      1 C                     1.112650       0.000000
      2 F                    -0.008941       0.000000
      3 F                    -0.143752       0.000000
      4 F                    -0.876497       0.000000
      5 F                    -0.083461       0.000000
  --------------------------------------------------------
  Sum of atomic charges =     0.000000

                    Cartesian Multipole Moments
 -----------------------------------------------------------------
    Charge (ESU x 10^10)
                 0.0000
    Dipole Moment (Debye)
         X       3.7569      Y       9.6808      Z      -3.7486
       Tot      11.0401
    Quadrupole Moments (Debye-Ang)
        XX     -28.4915     XY      -0.6146     YY      13.6115
        XZ       3.6362     YZ      -5.7550     ZZ     -23.9066

 Total job time:  2225.69s(wall), 3653.48s(cpu)
        *  Thank you very much for using Q-Chem.  Have a nice day.  *
