 Q-Chem 4.3, Q-Chem, Inc., Pleasanton, CA (2015)
 Q-Chem 4.3.0 for Intel X86 Linux

User input:
--------------------------------------------------------------
$comment
XAS calculation for the 2b valence excited for water using cvs-adc(2)-x + 6-311+G* basis set
job 1 - determination of HF orbitals
$end

$molecule
0 1
6  -0.426486  2.646551  -0.216441
9  0.850753  2.901348  -0.248921
9  -1.02761  3.189553  0.731496
9  -1.903468  0.352581  1.044254
9  -0.920873  2.842078  -1.388502
$end

$rem
jobtype      sp
sym_ignore true
exchange     hf
basis        6-31G*
unrestricted true
$end

--------------------------------------------------------------

   13    -435.3227948174      7.45E-06 Convergence criterion met
 Total energy in the final basis set = -435.3227948174
 Total job time:  3.25s(wall), 14.64s(cpu)
        *  Thank you very much for using Q-Chem.  Have a nice day.  *
 Q-Chem 4.3, Q-Chem, Inc., Pleasanton, CA (2015)
 Q-Chem 4.3.0 for Intel X86 Linux

User input:
--------------------------------------------------------------

$comment
job3 - cvs-adc(2) calculation
$end

$molecule
read
$end

$rem
mem_total 3000
mem_static 1500
sym_ignore true
scf_guess read
method cvs-adc(2)
basis 6-31G*
ee_singlets 20
cc_rest_occ 5                  !only excitations from the lowest N orbitals
unrestricted  true
max_scf_cycles 200
$end
--------------------------------------------------------------

             Standard Nuclear Orientation (Angstroms)
    I     Atom           X                Y                Z
 ----------------------------------------------------------------
    1      C      -0.4264860000     2.6465510000    -0.2164410000
    2      F       0.8507530000     2.9013480000    -0.2489210000
    3      F      -1.0276100000     3.1895530000     0.7314960000
    4      F      -1.9034680000     0.3525810000     1.0442540000
    5      F      -0.9208730000     2.8420780000    -1.3885020000
 ----------------------------------------------------------------

    9    -435.3227957026      8.13E-09 Convergence criterion met
 Total energy in the final basis set = -435.3227957026
  Term symbol:  2 (-) A                                     R^2 =  3.57130e-14
  Excitation energy:                                             293.908233 eV
  Term symbol:  3 (-) A                                     R^2 =  3.58762e-14
  Excitation energy:                                             295.647902 eV
  Term symbol:  4 (-) A                                     R^2 =  3.32399e-14
  Excitation energy:                                             301.848093 eV
  Term symbol:  5 (-) A                                     R^2 =  2.92051e-14
  Excitation energy:                                             302.785049 eV
  Term symbol:  6 (-) A                                     R^2 =  3.37060e-14
  Excitation energy:                                             303.728980 eV
  Term symbol:  7 (-) A                                     R^2 =  7.57059e-14
  Excitation energy:                                             303.859277 eV
  Term symbol:  8 (-) A                                     R^2 =  7.42976e-14
  Excitation energy:                                             304.879640 eV
  Term symbol:  9 (-) A                                     R^2 =  4.73989e-14
  Excitation energy:                                             305.650502 eV
  Term symbol:  10 (-) A                                    R^2 =  1.29297e-13
  Excitation energy:                                             313.000738 eV
  Excited state 10 (A)                                             [converged]
  Term symbol:  11 (-) A                                    R^2 =  1.60705e-13
  Excitation energy:                                             313.403282 eV
  Excited state 11 (A)                                             [converged]
  Term symbol:  12 (-) A                                    R^2 =  1.76789e-13
  Excitation energy:                                             313.499551 eV
  Excited state 12 (A)                                             [converged]
  Term symbol:  13 (-) A                                    R^2 =  1.94149e-13
  Excitation energy:                                             313.695301 eV
  Excited state 13 (A)                                             [converged]
  Term symbol:  14 (-) A                                    R^2 =  1.16057e-13
  Excitation energy:                                             314.036273 eV
  Excited state 14 (A)                                             [converged]
  Term symbol:  15 (-) A                                    R^2 =  1.32226e-12
  Excitation energy:                                             314.068893 eV
  Excited state 15 (A)                                             [converged]
  Term symbol:  16 (-) A                                    R^2 =  5.52752e-13
  Excitation energy:                                             314.235293 eV
  Excited state 16 (A)                                             [converged]
  Term symbol:  17 (-) A                                    R^2 =  3.78672e-11
  Excitation energy:                                             315.016106 eV
  Excited state 17 (A)                                             [converged]
  Term symbol:  18 (-) A                                    R^2 =  1.34276e-10
  Excitation energy:                                             323.803141 eV
  Excited state 18 (A)                                             [converged]
  Term symbol:  19 (-) A                                    R^2 =  1.79484e-10
  Excitation energy:                                             323.895195 eV
  Excited state 19 (A)                                         [not converged]
  Term symbol:  20 (-) A                                    R^2 =  3.30150e-01
  Excitation energy:                                             327.209353 eV
  Excited state 20 (A)                                         [not converged]
  Term symbol:  21 (-) A                                    R^2 =  2.87052e-04
  Excitation energy:                                             330.973200 eV

                    Orbital Energies (a.u.)
 --------------------------------------------------------------

 Alpha MOs
 -- Occupied --
-26.513 -26.508 -26.507 -26.095 -11.729  -1.907  -1.812  -1.791
 -1.316  -1.097  -0.990  -0.983  -0.934  -0.846  -0.833  -0.810
 -0.805  -0.790  -0.434  -0.434  -0.353

 Beta MOs
 -- Occupied --
-26.513 -26.508 -26.507 -26.095 -11.729  -1.907  -1.812  -1.791
 -1.316  -1.097  -0.990  -0.983  -0.934  -0.846  -0.833  -0.810
 -0.805  -0.790  -0.434  -0.434  -0.353

          Ground-State Mulliken Net Atomic Charges

     Atom                 Charge (a.u.)    Spin (a.u.)
  --------------------------------------------------------
      1 C                     1.156681       0.000000
      2 F                    -0.218795       0.000000
      3 F                    -0.130998       0.000000
      4 F                    -0.612830       0.000000
      5 F                    -0.194059       0.000000
  --------------------------------------------------------
  Sum of atomic charges =     0.000000

                    Cartesian Multipole Moments
 -----------------------------------------------------------------
    Charge (ESU x 10^10)
                 0.0000
    Dipole Moment (Debye)
         X       4.1007      Y       6.4170      Z      -3.4285
       Tot       8.3515
    Quadrupole Moments (Debye-Ang)
        XX     -33.3856     XY      -1.6303     YY      -3.8778
        XZ       5.7300     YZ      -2.2517     ZZ     -26.4717

 Total job time:  1687.63s(wall), 2880.57s(cpu)
        *  Thank you very much for using Q-Chem.  Have a nice day.  *
