 Q-Chem 4.3, Q-Chem, Inc., Pleasanton, CA (2015)
 Q-Chem 4.3.0 for Intel X86 Linux

User input:
--------------------------------------------------------------
$comment
XAS calculation for the 2b valence excited for water using cvs-adc(2)-x + 6-311+G* basis set
job 1 - determination of HF orbitals
$end

$molecule
0 1
6  -0.355591  2.906597  -0.293
9  0.799128  2.764697  -0.214405
9  -1.020113  3.306861  0.707415
9  -1.85027  0.127091  1.058636
9  -0.92579  2.833556  -1.368257
$end

$rem
jobtype      sp
sym_ignore true
exchange     hf
basis        6-31G*
unrestricted true
$end

--------------------------------------------------------------

   12    -435.3186779885      1.92E-06 Convergence criterion met
 Total energy in the final basis set = -435.3186779885
 Total job time:  3.10s(wall), 13.29s(cpu)
        *  Thank you very much for using Q-Chem.  Have a nice day.  *
 Q-Chem 4.3, Q-Chem, Inc., Pleasanton, CA (2015)
 Q-Chem 4.3.0 for Intel X86 Linux

User input:
--------------------------------------------------------------

$comment
job3 - cvs-adc(2) calculation
$end

$molecule
read
$end

$rem
mem_total 3000
mem_static 1500
sym_ignore true
scf_guess read
method cvs-adc(2)
basis 6-31G*
ee_singlets 20
cc_rest_occ 5                  !only excitations from the lowest N orbitals
unrestricted  true
max_scf_cycles 200
$end
--------------------------------------------------------------

             Standard Nuclear Orientation (Angstroms)
    I     Atom           X                Y                Z
 ----------------------------------------------------------------
    1      C      -0.3555910000     2.9065970000    -0.2930000000
    2      F       0.7991280000     2.7646970000    -0.2144050000
    3      F      -1.0201130000     3.3068610000     0.7074150000
    4      F      -1.8502700000     0.1270910000     1.0586360000
    5      F      -0.9257900000     2.8335560000    -1.3682570000
 ----------------------------------------------------------------

    8    -435.3186781884      5.92E-09 Convergence criterion met
 Total energy in the final basis set = -435.3186781884
  Term symbol:  2 (-) A                                     R^2 =  2.25518e-12
  Excitation energy:                                             294.672021 eV
  Term symbol:  3 (-) A                                     R^2 =  1.65930e-13
  Excitation energy:                                             296.594040 eV
  Term symbol:  4 (-) A                                     R^2 =  1.40964e-13
  Excitation energy:                                             302.677736 eV
  Term symbol:  5 (-) A                                     R^2 =  1.20251e-12
  Excitation energy:                                             304.329073 eV
  Term symbol:  6 (-) A                                     R^2 =  6.32520e-13
  Excitation energy:                                             304.994113 eV
  Term symbol:  7 (-) A                                     R^2 =  3.28847e-13
  Excitation energy:                                             306.831590 eV
  Term symbol:  8 (-) A                                     R^2 =  2.17162e-13
  Excitation energy:                                             307.126848 eV
  Term symbol:  9 (-) A                                     R^2 =  8.30795e-13
  Excitation energy:                                             308.873940 eV
  Term symbol:  10 (-) A                                    R^2 =  1.51664e-12
  Excitation energy:                                             313.123502 eV
  Excited state 10 (A)                                             [converged]
  Term symbol:  11 (-) A                                    R^2 =  1.50297e-12
  Excitation energy:                                             314.252193 eV
  Excited state 11 (A)                                             [converged]
  Term symbol:  12 (-) A                                    R^2 =  1.59897e-12
  Excitation energy:                                             314.397232 eV
  Excited state 12 (A)                                             [converged]
  Term symbol:  13 (-) A                                    R^2 =  4.77541e-13
  Excitation energy:                                             314.929293 eV
  Excited state 13 (A)                                             [converged]
  Term symbol:  14 (-) A                                    R^2 =  1.53890e-12
  Excitation energy:                                             315.067698 eV
  Excited state 14 (A)                                             [converged]
  Term symbol:  15 (-) A                                    R^2 =  2.15038e-12
  Excitation energy:                                             315.391257 eV
  Excited state 15 (A)                                             [converged]
  Term symbol:  16 (-) A                                    R^2 =  3.40708e-12
  Excitation energy:                                             315.532063 eV
  Excited state 16 (A)                                             [converged]
  Term symbol:  17 (-) A                                    R^2 =  1.27369e-11
  Excitation energy:                                             316.263758 eV
  Excited state 17 (A)                                         [not converged]
  Term symbol:  18 (-) A                                    R^2 =  1.41909e-04
  Excitation energy:                                             326.435413 eV
  Excited state 18 (A)                                         [not converged]
  Term symbol:  19 (-) A                                    R^2 =  5.25459e-04
  Excitation energy:                                             326.443300 eV
  Excited state 19 (A)                                         [not converged]
  Term symbol:  20 (-) A                                    R^2 =  5.32517e-02
  Excitation energy:                                             326.835886 eV
  Excited state 20 (A)                                         [not converged]
  Term symbol:  21 (-) A                                    R^2 =  3.63163e-04
  Excitation energy:                                             331.244295 eV

                    Orbital Energies (a.u.)
 --------------------------------------------------------------

 Alpha MOs
 -- Occupied --
-26.619 -26.589 -26.560 -25.902 -11.792  -2.035  -1.930  -1.872
 -1.179  -1.161  -1.097  -1.084  -1.041  -0.921  -0.914  -0.906
 -0.868  -0.858  -0.272  -0.272  -0.258

 Beta MOs
 -- Occupied --
-26.619 -26.589 -26.560 -25.902 -11.792  -2.035  -1.930  -1.872
 -1.179  -1.161  -1.097  -1.084  -1.041  -0.921  -0.914  -0.906
 -0.868  -0.858  -0.272  -0.272  -0.258

          Ground-State Mulliken Net Atomic Charges

     Atom                 Charge (a.u.)    Spin (a.u.)
  --------------------------------------------------------
      1 C                     1.194285       0.000000
      2 F                    -0.038095       0.000000
      3 F                    -0.135639       0.000000
      4 F                    -0.918284       0.000000
      5 F                    -0.102267       0.000000
  --------------------------------------------------------
  Sum of atomic charges =     0.000000

                    Cartesian Multipole Moments
 -----------------------------------------------------------------
    Charge (ESU x 10^10)
                 0.0000
    Dipole Moment (Debye)
         X       6.7635      Y      11.9221      Z      -5.9334
       Tot      14.9361
    Quadrupole Moments (Debye-Ang)
        XX     -36.7336     XY      -2.4968     YY      13.7435
        XZ       8.9034     YZ      -4.6058     ZZ     -26.9616

 Total job time:  2012.18s(wall), 3249.29s(cpu)
        *  Thank you very much for using Q-Chem.  Have a nice day.  *
