 Q-Chem 4.3, Q-Chem, Inc., Pleasanton, CA (2015)
 Q-Chem 4.3.0 for Intel X86 Linux

User input:
--------------------------------------------------------------
$comment
XAS calculation for the 2b valence excited for water using cvs-adc(2)-x + 6-311+G* basis set
job 1 - determination of HF orbitals
$end

$molecule
0 1
6  -0.332216  3.109187  -0.320746
9  0.821894  2.770177  -0.222092
9  -0.9998  3.281188  0.681646
9  -1.915868  0.019178  1.116907
9  -0.917326  2.832762  -1.375588
$end

$rem
jobtype      sp
sym_ignore true
exchange     hf
basis        6-31G*
unrestricted true
$end

--------------------------------------------------------------

   16    -435.2922795312      9.48E-06 Convergence criterion met
 Total energy in the final basis set = -435.2922795312
 Total job time:  4.20s(wall), 17.75s(cpu)
        *  Thank you very much for using Q-Chem.  Have a nice day.  *
 Q-Chem 4.3, Q-Chem, Inc., Pleasanton, CA (2015)
 Q-Chem 4.3.0 for Intel X86 Linux

User input:
--------------------------------------------------------------

$comment
job3 - cvs-adc(2) calculation
$end

$molecule
read
$end

$rem
mem_total 3000
mem_static 1500
sym_ignore true
scf_guess read
method cvs-adc(2)
basis 6-31G*
ee_singlets 20
cc_rest_occ 5                  !only excitations from the lowest N orbitals
unrestricted  true
max_scf_cycles 200
$end
--------------------------------------------------------------

             Standard Nuclear Orientation (Angstroms)
    I     Atom           X                Y                Z
 ----------------------------------------------------------------
    1      C      -0.3322160000     3.1091870000    -0.3207460000
    2      F       0.8218940000     2.7701770000    -0.2220920000
    3      F      -0.9998000000     3.2811880000     0.6816460000
    4      F      -1.9158680000     0.0191780000     1.1169070000
    5      F      -0.9173260000     2.8327620000    -1.3755880000
 ----------------------------------------------------------------

   12    -435.2922809222      5.39E-09 Convergence criterion met
 Total energy in the final basis set = -435.2922809222
  Term symbol:  2 (-) A                                     R^2 =  1.42091e-12
  Excitation energy:                                             294.028965 eV
  Term symbol:  3 (-) A                                     R^2 =  9.83105e-12
  Excitation energy:                                             295.879140 eV
  Term symbol:  4 (-) A                                     R^2 =  7.20379e-12
  Excitation energy:                                             303.433244 eV
  Term symbol:  5 (-) A                                     R^2 =  3.62407e-12
  Excitation energy:                                             305.027087 eV
  Term symbol:  6 (-) A                                     R^2 =  7.43374e-12
  Excitation energy:                                             305.098948 eV
  Term symbol:  7 (-) A                                     R^2 =  1.44909e-12
  Excitation energy:                                             305.726721 eV
  Term symbol:  8 (-) A                                     R^2 =  6.93845e-12
  Excitation energy:                                             307.136739 eV
  Term symbol:  9 (-) A                                     R^2 =  6.26677e-13
  Excitation energy:                                             307.846452 eV
  Term symbol:  10 (-) A                                    R^2 =  9.63776e-12
  Excitation energy:                                             312.811070 eV
  Excited state 10 (A)                                             [converged]
  Term symbol:  11 (-) A                                    R^2 =  1.31353e-11
  Excitation energy:                                             314.088517 eV
  Excited state 11 (A)                                             [converged]
  Term symbol:  12 (-) A                                    R^2 =  2.40672e-12
  Excitation energy:                                             314.414440 eV
  Excited state 12 (A)                                             [converged]
  Term symbol:  13 (-) A                                    R^2 =  4.75938e-12
  Excitation energy:                                             314.490437 eV
  Excited state 13 (A)                                             [converged]
  Term symbol:  14 (-) A                                    R^2 =  2.01933e-12
  Excitation energy:                                             314.859561 eV
  Excited state 14 (A)                                             [converged]
  Term symbol:  15 (-) A                                    R^2 =  3.22337e-12
  Excitation energy:                                             314.893076 eV
  Excited state 15 (A)                                             [converged]
  Term symbol:  16 (-) A                                    R^2 =  9.52337e-12
  Excitation energy:                                             315.005360 eV
  Excited state 16 (A)                                             [converged]
  Term symbol:  17 (-) A                                    R^2 =  7.98221e-12
  Excitation energy:                                             315.915680 eV
  Excited state 17 (A)                                             [converged]
  Term symbol:  18 (-) A                                    R^2 =  5.19109e-10
  Excitation energy:                                             322.728131 eV
  Excited state 18 (A)                                             [converged]
  Term symbol:  19 (-) A                                    R^2 =  1.18555e-08
  Excitation energy:                                             322.734078 eV
  Excited state 19 (A)                                         [not converged]
  Term symbol:  20 (-) A                                    R^2 =  1.75574e-03
  Excitation energy:                                             330.384638 eV
  Excited state 20 (A)                                         [not converged]
  Term symbol:  21 (-) A                                    R^2 =  2.62373e-03
  Excitation energy:                                             330.385895 eV

                    Orbital Energies (a.u.)
 --------------------------------------------------------------

 Alpha MOs
 -- Occupied --
-26.612 -26.599 -26.595 -25.864 -11.805  -2.028  -1.927  -1.909
 -1.183  -1.129  -1.099  -1.096  -1.044  -0.931  -0.925  -0.905
 -0.893  -0.877  -0.240  -0.240  -0.232

 Beta MOs
 -- Occupied --
-26.612 -26.599 -26.595 -25.864 -11.805  -2.028  -1.927  -1.909
 -1.183  -1.129  -1.099  -1.096  -1.044  -0.931  -0.925  -0.905
 -0.893  -0.877  -0.240  -0.240  -0.232

          Ground-State Mulliken Net Atomic Charges

     Atom                 Charge (a.u.)    Spin (a.u.)
  --------------------------------------------------------
      1 C                     1.215301       0.000000
      2 F                    -0.081014       0.000000
      3 F                    -0.065540       0.000000
      4 F                    -0.957526       0.000000
      5 F                    -0.111222       0.000000
  --------------------------------------------------------
  Sum of atomic charges =     0.000000

                    Cartesian Multipole Moments
 -----------------------------------------------------------------
    Charge (ESU x 10^10)
                 0.0000
    Dipole Moment (Debye)
         X       7.1835      Y      14.1139      Z      -6.3608
       Tot      17.0665
    Quadrupole Moments (Debye-Ang)
        XX     -38.4321     XY      -4.4693     YY      22.5682
        XZ      10.0001     YZ      -4.2678     ZZ     -27.6055

 Total job time:  2130.62s(wall), 3482.96s(cpu)
        *  Thank you very much for using Q-Chem.  Have a nice day.  *
