 Q-Chem 4.3, Q-Chem, Inc., Pleasanton, CA (2015)
 Q-Chem 4.3.0 for Intel X86 Linux

User input:
--------------------------------------------------------------
$comment
XAS calculation for the 2b valence excited for water using cvs-adc(2)-x + 6-311+G* basis set
job 1 - determination of HF orbitals
$end

$molecule
0 1
6  -0.558296  2.912667  -0.194343
9  0.710019  2.382437  -0.032538
9  -1.139874  3.130332  0.792406
9  -1.350826  1.031275  0.59523
9  -1.112609  2.525756  -1.228433
$end

$rem
jobtype      sp
sym_ignore true
exchange     hf
basis        6-31G*
unrestricted true
$end

--------------------------------------------------------------

   11    -435.3562865210      7.81E-06 Convergence criterion met
 Total energy in the final basis set = -435.3562865210
 Total job time:  3.11s(wall), 11.97s(cpu)
        *  Thank you very much for using Q-Chem.  Have a nice day.  *
 Q-Chem 4.3, Q-Chem, Inc., Pleasanton, CA (2015)
 Q-Chem 4.3.0 for Intel X86 Linux

User input:
--------------------------------------------------------------

$comment
job3 - cvs-adc(2) calculation
$end

$molecule
read
$end

$rem
mem_total 3000
mem_static 1500
sym_ignore true
scf_guess read
method cvs-adc(2)
basis 6-31G*
ee_singlets 20
cc_rest_occ 5                  !only excitations from the lowest N orbitals
unrestricted  true
max_scf_cycles 200
$end
--------------------------------------------------------------

             Standard Nuclear Orientation (Angstroms)
    I     Atom           X                Y                Z
 ----------------------------------------------------------------
    1      C      -0.5582960000     2.9126670000    -0.1943430000
    2      F       0.7100190000     2.3824370000    -0.0325380000
    3      F      -1.1398740000     3.1303320000     0.7924060000
    4      F      -1.3508260000     1.0312750000     0.5952300000
    5      F      -1.1126090000     2.5257560000    -1.2284330000
 ----------------------------------------------------------------

    8    -435.3562869934      9.17E-09 Convergence criterion met
 Total energy in the final basis set = -435.3562869934
  Term symbol:  2 (-) A                                     R^2 =  1.72566e-13
  Excitation energy:                                             293.452117 eV
  Term symbol:  3 (-) A                                     R^2 =  5.89804e-14
  Excitation energy:                                             295.252168 eV
  Term symbol:  4 (-) A                                     R^2 =  1.31452e-13
  Excitation energy:                                             301.031814 eV
  Term symbol:  5 (-) A                                     R^2 =  5.13427e-14
  Excitation energy:                                             303.229851 eV
  Term symbol:  6 (-) A                                     R^2 =  2.70510e-13
  Excitation energy:                                             304.316343 eV
  Term symbol:  7 (-) A                                     R^2 =  1.42599e-13
  Excitation energy:                                             306.308616 eV
  Term symbol:  8 (-) A                                     R^2 =  2.86386e-13
  Excitation energy:                                             306.787440 eV
  Term symbol:  9 (-) A                                     R^2 =  9.03005e-14
  Excitation energy:                                             308.535486 eV
  Term symbol:  10 (-) A                                    R^2 =  1.22276e-13
  Excitation energy:                                             312.228020 eV
  Excited state 10 (A)                                             [converged]
  Term symbol:  11 (-) A                                    R^2 =  1.03189e-13
  Excitation energy:                                             313.700615 eV
  Excited state 11 (A)                                             [converged]
  Term symbol:  12 (-) A                                    R^2 =  2.67986e-13
  Excitation energy:                                             314.200490 eV
  Excited state 12 (A)                                             [converged]
  Term symbol:  13 (-) A                                    R^2 =  5.30485e-13
  Excitation energy:                                             314.452605 eV
  Excited state 13 (A)                                             [converged]
  Term symbol:  14 (-) A                                    R^2 =  8.11522e-13
  Excitation energy:                                             314.640068 eV
  Excited state 14 (A)                                             [converged]
  Term symbol:  15 (-) A                                    R^2 =  2.09464e-13
  Excitation energy:                                             315.186609 eV
  Excited state 15 (A)                                             [converged]
  Term symbol:  16 (-) A                                    R^2 =  1.01267e-10
  Excitation energy:                                             320.243878 eV
  Excited state 16 (A)                                             [converged]
  Term symbol:  17 (-) A                                    R^2 =  2.19671e-11
  Excitation energy:                                             320.816909 eV
  Excited state 17 (A)                                             [converged]
  Term symbol:  18 (-) A                                    R^2 =  1.47458e-07
  Excitation energy:                                             331.271217 eV
  Excited state 18 (A)                                             [converged]
  Term symbol:  19 (-) A                                    R^2 =  3.53951e-07
  Excitation energy:                                             331.465489 eV
  Excited state 19 (A)                                         [not converged]
  Term symbol:  20 (-) A                                    R^2 =  3.96631e-05
  Excitation energy:                                             332.061160 eV
  Excited state 20 (A)                                         [not converged]
  Term symbol:  21 (-) A                                    R^2 =  3.60818e-05
  Excitation energy:                                             332.167690 eV

                    Orbital Energies (a.u.)
 --------------------------------------------------------------

 Alpha MOs
 -- Occupied --
-26.535 -26.513 -26.460 -25.999 -11.725  -1.939  -1.843  -1.733
 -1.270  -1.095  -1.006  -0.982  -0.939  -0.838  -0.821  -0.800
 -0.769  -0.764  -0.371  -0.370  -0.365

 Beta MOs
 -- Occupied --
-26.535 -26.513 -26.460 -25.999 -11.725  -1.939  -1.843  -1.733
 -1.270  -1.095  -1.006  -0.982  -0.939  -0.838  -0.821  -0.800
 -0.769  -0.764  -0.371  -0.370  -0.365

          Ground-State Mulliken Net Atomic Charges

     Atom                 Charge (a.u.)    Spin (a.u.)
  --------------------------------------------------------
      1 C                     1.210976       0.000000
      2 F                    -0.258449       0.000000
      3 F                     0.004856       0.000000
      4 F                    -0.839674       0.000000
      5 F                    -0.117709       0.000000
  --------------------------------------------------------
  Sum of atomic charges =     0.000000

                    Cartesian Multipole Moments
 -----------------------------------------------------------------
    Charge (ESU x 10^10)
                 0.0000
    Dipole Moment (Debye)
         X       2.2965      Y       7.8315      Z      -2.8692
       Tot       8.6509
    Quadrupole Moments (Debye-Ang)
        XX     -28.4574     XY      -3.1186     YY       9.4195
        XZ       3.2702     YZ      -4.2041     ZZ     -23.8159

 Total job time:  2028.58s(wall), 3308.99s(cpu)
        *  Thank you very much for using Q-Chem.  Have a nice day.  *
