 Q-Chem 4.3, Q-Chem, Inc., Pleasanton, CA (2015)
 Q-Chem 4.3.0 for Intel X86 Linux

User input:
--------------------------------------------------------------
$comment
XAS calculation for the 2b valence excited for water using cvs-adc(2)-x + 6-311+G* basis set
job 1 - determination of HF orbitals
$end

$molecule
0 1
6  -0.570428  2.887653  -0.158014
9  0.566437  2.303966  0.022219
9  -1.15113  3.268323  0.784468
9  -1.185869  0.964639  0.506945
9  -1.153762  2.549219  -1.195283
$end

$rem
jobtype      sp
sym_ignore true
exchange     hf
basis        6-31G*
unrestricted true
$end

--------------------------------------------------------------

    9    -435.3937538538      8.14E-06 Convergence criterion met
 Total energy in the final basis set = -435.3937538538
 Total job time:  2.60s(wall), 10.94s(cpu)
        *  Thank you very much for using Q-Chem.  Have a nice day.  *
 Q-Chem 4.3, Q-Chem, Inc., Pleasanton, CA (2015)
 Q-Chem 4.3.0 for Intel X86 Linux

User input:
--------------------------------------------------------------

$comment
job3 - cvs-adc(2) calculation
$end

$molecule
read
$end

$rem
mem_total 3000
mem_static 1500
sym_ignore true
scf_guess read
method cvs-adc(2)
basis 6-31G*
ee_singlets 20
cc_rest_occ 5                  !only excitations from the lowest N orbitals
unrestricted  true
max_scf_cycles 200
$end
--------------------------------------------------------------

             Standard Nuclear Orientation (Angstroms)
    I     Atom           X                Y                Z
 ----------------------------------------------------------------
    1      C      -0.5704280000     2.8876530000    -0.1580140000
    2      F       0.5664370000     2.3039660000     0.0222190000
    3      F      -1.1511300000     3.2683230000     0.7844680000
    4      F      -1.1858690000     0.9646390000     0.5069450000
    5      F      -1.1537620000     2.5492190000    -1.1952830000
 ----------------------------------------------------------------

    7    -435.3937539936      5.31E-09 Convergence criterion met
 Total energy in the final basis set = -435.3937539936
  Term symbol:  2 (-) A                                     R^2 =  1.02180e-13
  Excitation energy:                                             293.830389 eV
  Term symbol:  3 (-) A                                     R^2 =  2.76669e-13
  Excitation energy:                                             295.655673 eV
  Term symbol:  4 (-) A                                     R^2 =  3.00413e-12
  Excitation energy:                                             303.224371 eV
  Term symbol:  5 (-) A                                     R^2 =  2.03251e-12
  Excitation energy:                                             304.331552 eV
  Term symbol:  6 (-) A                                     R^2 =  9.78967e-13
  Excitation energy:                                             305.418239 eV
  Term symbol:  7 (-) A                                     R^2 =  3.48442e-13
  Excitation energy:                                             306.342930 eV
  Term symbol:  8 (-) A                                     R^2 =  2.53352e-13
  Excitation energy:                                             306.623526 eV
  Term symbol:  9 (-) A                                     R^2 =  7.10943e-13
  Excitation energy:                                             308.505521 eV
  Term symbol:  10 (-) A                                    R^2 =  9.25646e-13
  Excitation energy:                                             312.051227 eV
  Excited state 10 (A)                                             [converged]
  Term symbol:  11 (-) A                                    R^2 =  2.78473e-13
  Excitation energy:                                             313.642818 eV
  Excited state 11 (A)                                             [converged]
  Term symbol:  12 (-) A                                    R^2 =  5.38549e-13
  Excitation energy:                                             314.145479 eV
  Excited state 12 (A)                                             [converged]
  Term symbol:  13 (-) A                                    R^2 =  5.08539e-13
  Excitation energy:                                             314.484423 eV
  Excited state 13 (A)                                             [converged]
  Term symbol:  14 (-) A                                    R^2 =  5.38543e-13
  Excitation energy:                                             314.560368 eV
  Excited state 14 (A)                                             [converged]
  Term symbol:  15 (-) A                                    R^2 =  1.01465e-12
  Excitation energy:                                             315.084274 eV
  Excited state 15 (A)                                             [converged]
  Term symbol:  16 (-) A                                    R^2 =  6.26768e-11
  Excitation energy:                                             320.266004 eV
  Excited state 16 (A)                                             [converged]
  Term symbol:  17 (-) A                                    R^2 =  4.25079e-12
  Excitation energy:                                             320.783008 eV
  Excited state 17 (A)                                             [converged]
  Term symbol:  18 (-) A                                    R^2 =  6.37305e-08
  Excitation energy:                                             331.179604 eV
  Excited state 18 (A)                                             [converged]
  Term symbol:  19 (-) A                                    R^2 =  2.58729e-08
  Excitation energy:                                             331.362079 eV
  Excited state 19 (A)                                         [not converged]
  Term symbol:  20 (-) A                                    R^2 =  1.29941e-06
  Excitation energy:                                             331.998834 eV
  Excited state 20 (A)                                             [converged]
  Term symbol:  21 (-) A                                    R^2 =  7.22562e-07
  Excitation energy:                                             332.126558 eV

                    Orbital Energies (a.u.)
 --------------------------------------------------------------

 Alpha MOs
 -- Occupied --
-26.528 -26.495 -26.465 -26.010 -11.712  -1.937  -1.833  -1.769
 -1.280  -1.091  -1.004  -0.990  -0.942  -0.832  -0.819  -0.816
 -0.780  -0.768  -0.380  -0.379  -0.377

 Beta MOs
 -- Occupied --
-26.528 -26.495 -26.465 -26.010 -11.712  -1.937  -1.833  -1.769
 -1.280  -1.091  -1.004  -0.990  -0.942  -0.832  -0.819  -0.816
 -0.780  -0.768  -0.380  -0.379  -0.377

          Ground-State Mulliken Net Atomic Charges

     Atom                 Charge (a.u.)    Spin (a.u.)
  --------------------------------------------------------
      1 C                     1.206483       0.000000
      2 F                    -0.190602       0.000000
      3 F                    -0.053332       0.000000
      4 F                    -0.822036       0.000000
      5 F                    -0.140512       0.000000
  --------------------------------------------------------
  Sum of atomic charges =     0.000000

                    Cartesian Multipole Moments
 -----------------------------------------------------------------
    Charge (ESU x 10^10)
                 0.0000
    Dipole Moment (Debye)
         X       2.0416      Y       7.7199      Z      -2.3752
       Tot       8.3311
    Quadrupole Moments (Debye-Ang)
        XX     -26.9536     XY      -2.7561     YY       8.2429
        XZ       2.3564     YZ      -3.3402     ZZ     -23.7057

 Total job time:  2141.86s(wall), 3480.47s(cpu)
        *  Thank you very much for using Q-Chem.  Have a nice day.  *
