 Q-Chem 4.3, Q-Chem, Inc., Pleasanton, CA (2015)
 Q-Chem 4.3.0 for Intel X86 Linux

User input:
--------------------------------------------------------------
$comment
XAS calculation for the 2b valence excited for water using cvs-adc(2)-x + 6-311+G* basis set
job 1 - determination of HF orbitals
$end

$molecule
0 1
6  -0.469813  2.961463  -0.220471
9  0.57587  2.32339  0.000697
9  -1.137865  3.250455  0.777267
9  -1.241396  0.901611  0.553458
9  -1.136647  2.534443  -1.197581
$end

$rem
jobtype      sp
sym_ignore true
exchange     hf
basis        6-31G*
unrestricted true
$end

--------------------------------------------------------------

   12    -435.3489042590      6.15E-06 Convergence criterion met
 Total energy in the final basis set = -435.3489042590

                    Orbital Energies (a.u.)
 --------------------------------------------------------------

 Alpha MOs
 -- Occupied --
-26.520 -26.515 -26.510 -25.965 -11.734  -1.924  -1.822  -1.810
 -1.235  -1.098  -1.002  -1.000  -0.940  -0.840  -0.837  -0.807
 -0.802  -0.790  -0.339  -0.338  -0.338

 Beta MOs
 -- Occupied --
-26.520 -26.515 -26.510 -25.965 -11.734  -1.924  -1.822  -1.810
 -1.235  -1.098  -1.002  -1.000  -0.940  -0.840  -0.837  -0.807
 -0.802  -0.790  -0.339  -0.338  -0.338

          Ground-State Mulliken Net Atomic Charges

     Atom                 Charge (a.u.)    Spin (a.u.)
  --------------------------------------------------------
      1 C                     1.228048       0.000000
      2 F                    -0.112766       0.000000
      3 F                    -0.099930       0.000000
      4 F                    -0.885152       0.000000
      5 F                    -0.130199       0.000000
  --------------------------------------------------------
  Sum of atomic charges =     0.000000

                    Cartesian Multipole Moments
 -----------------------------------------------------------------
    Charge (ESU x 10^10)
                 0.0000
    Dipole Moment (Debye)
         X       3.2592      Y       8.7128      Z      -3.1639
       Tot       9.8258
    Quadrupole Moments (Debye-Ang)
        XX     -28.2665     XY      -0.7663     YY      11.9395
        XZ       3.0853     YZ      -4.9560     ZZ     -23.8429

 Total job time:  3.38s(wall), 13.33s(cpu)
        *  Thank you very much for using Q-Chem.  Have a nice day.  *
 Q-Chem 4.3, Q-Chem, Inc., Pleasanton, CA (2015)
 Q-Chem 4.3.0 for Intel X86 Linux

User input:
--------------------------------------------------------------

$comment
job3 - cvs-adc(2) calculation
$end

$molecule
read
$end

$rem
mem_total 3000
mem_static 1500
sym_ignore true
scf_guess read
method cvs-adc(2)
basis 6-31G*
ee_singlets 20
cc_rest_occ 5                  !only excitations from the lowest N orbitals
unrestricted  true
max_scf_cycles 200
$end
--------------------------------------------------------------

             Standard Nuclear Orientation (Angstroms)
    I     Atom           X                Y                Z
 ----------------------------------------------------------------
    1      C      -0.4698130000     2.9614630000    -0.2204710000
    2      F       0.5758700000     2.3233900000     0.0006970000
    3      F      -1.1378650000     3.2504550000     0.7772670000
    4      F      -1.2413960000     0.9016110000     0.5534580000
    5      F      -1.1366470000     2.5344430000    -1.1975810000
 ----------------------------------------------------------------

    8    -435.3489045543      7.26E-09 Convergence criterion met
 Total energy in the final basis set = -435.3489045543
