 Q-Chem 4.3, Q-Chem, Inc., Pleasanton, CA (2015)
 Q-Chem 4.3.0 for Intel X86 Linux

User input:
--------------------------------------------------------------
$comment
XAS calculation for the 2b valence excited for water using cvs-adc(2)-x + 6-311+G* basis set
job 1 - determination of HF orbitals
$end

$molecule
0 1
6  -0.67283  2.382464  -0.026552
9  0.566749  2.350436  0.000656
9  -1.132556  3.286628  0.78644
9  -1.136677  1.195297  0.426976
9  -1.125666  2.553872  -1.189081
$end

$rem
jobtype      sp
sym_ignore true
exchange     hf
basis        6-31G*
unrestricted true
$end

--------------------------------------------------------------

    8    -435.6371703331      3.16E-06 Convergence criterion met
 Total energy in the final basis set = -435.6371703331
 Total job time:  2.29s(wall), 10.01s(cpu)
        *  Thank you very much for using Q-Chem.  Have a nice day.  *
 Q-Chem 4.3, Q-Chem, Inc., Pleasanton, CA (2015)
 Q-Chem 4.3.0 for Intel X86 Linux

User input:
--------------------------------------------------------------

$comment
job3 - cvs-adc(2) calculation
$end

$molecule
read
$end

$rem
mem_total 3000
mem_static 1500
sym_ignore true
scf_guess read
method cvs-adc(2)
basis 6-31G*
ee_singlets 20
cc_rest_occ 5                  !only excitations from the lowest N orbitals
unrestricted  true
max_scf_cycles 200
$end
--------------------------------------------------------------

             Standard Nuclear Orientation (Angstroms)
    I     Atom           X                Y                Z
 ----------------------------------------------------------------
    1      C      -0.6728300000     2.3824640000    -0.0265520000
    2      F       0.5667490000     2.3504360000     0.0006560000
    3      F      -1.1325560000     3.2866280000     0.7864400000
    4      F      -1.1366770000     1.1952970000     0.4269760000
    5      F      -1.1256660000     2.5538720000    -1.1890810000
 ----------------------------------------------------------------

    5    -435.6371703320      3.14E-09 Convergence criterion met
 Total energy in the final basis set = -435.6371703320
  Term symbol:  2 (-) A                                     R^2 =  2.62321e-14
  Excitation energy:                                             300.603856 eV
  Term symbol:  3 (-) A                                     R^2 =  8.50557e-14
  Excitation energy:                                             302.052363 eV
  Term symbol:  4 (-) A                                     R^2 =  5.47540e-14
  Excitation energy:                                             302.777998 eV
  Term symbol:  5 (-) A                                     R^2 =  3.18613e-14
  Excitation energy:                                             303.089580 eV
  Term symbol:  6 (-) A                                     R^2 =  8.75977e-14
  Excitation energy:                                             304.275369 eV
  Term symbol:  7 (-) A                                     R^2 =  1.19064e-13
  Excitation energy:                                             304.804642 eV
  Term symbol:  8 (-) A                                     R^2 =  1.99401e-14
  Excitation energy:                                             305.274553 eV
  Term symbol:  9 (-) A                                     R^2 =  5.46940e-14
  Excitation energy:                                             307.206919 eV
  Term symbol:  10 (-) A                                    R^2 =  9.79808e-14
  Excitation energy:                                             312.656126 eV
  Excited state 10 (A)                                             [converged]
  Term symbol:  11 (-) A                                    R^2 =  1.93666e-13
  Excitation energy:                                             313.442271 eV
  Excited state 11 (A)                                             [converged]
  Term symbol:  12 (-) A                                    R^2 =  1.44795e-13
  Excitation energy:                                             313.497113 eV
  Excited state 12 (A)                                             [converged]
  Term symbol:  13 (-) A                                    R^2 =  1.56407e-13
  Excitation energy:                                             313.595891 eV
  Excited state 13 (A)                                             [converged]
  Term symbol:  14 (-) A                                    R^2 =  6.64706e-14
  Excitation energy:                                             313.825294 eV
  Excited state 14 (A)                                             [converged]
  Term symbol:  15 (-) A                                    R^2 =  5.53561e-13
  Excitation energy:                                             313.836941 eV
  Excited state 15 (A)                                             [converged]
  Term symbol:  16 (-) A                                    R^2 =  4.24280e-13
  Excitation energy:                                             313.997603 eV
  Excited state 16 (A)                                             [converged]
  Term symbol:  17 (-) A                                    R^2 =  4.23210e-13
  Excitation energy:                                             314.290033 eV
  Excited state 17 (A)                                             [converged]
  Term symbol:  18 (-) A                                    R^2 =  1.35313e-07
  Excitation energy:                                             330.211892 eV
  Excited state 18 (A)                                             [converged]
  Term symbol:  19 (-) A                                    R^2 =  5.90840e-08
  Excitation energy:                                             330.236273 eV
  Excited state 19 (A)                                             [converged]
  Term symbol:  20 (-) A                                    R^2 =  7.22907e-07
  Excitation energy:                                             330.290989 eV
  Excited state 20 (A)                                             [converged]
  Term symbol:  21 (-) A                                    R^2 =  1.56405e-07
  Excitation energy:                                             330.311713 eV

                    Orbital Energies (a.u.)
 --------------------------------------------------------------

 Alpha MOs
 -- Occupied --
-26.392 -26.385 -26.368 -26.343 -11.599  -1.834  -1.714  -1.686
 -1.644  -1.009  -0.907  -0.901  -0.891  -0.765  -0.762  -0.720
 -0.709  -0.687  -0.680  -0.663  -0.658

 Beta MOs
 -- Occupied --
-26.392 -26.385 -26.368 -26.343 -11.599  -1.834  -1.714  -1.686
 -1.644  -1.009  -0.907  -0.901  -0.891  -0.765  -0.762  -0.720
 -0.709  -0.687  -0.680  -0.663  -0.658

          Ground-State Mulliken Net Atomic Charges

     Atom                 Charge (a.u.)    Spin (a.u.)
  --------------------------------------------------------
      1 C                     1.271125       0.000000
      2 F                    -0.265865       0.000000
      3 F                    -0.332357       0.000000
      4 F                    -0.384926       0.000000
      5 F                    -0.287976       0.000000
  --------------------------------------------------------
  Sum of atomic charges =     0.000000

                    Cartesian Multipole Moments
 -----------------------------------------------------------------
    Charge (ESU x 10^10)
                 0.0000
    Dipole Moment (Debye)
         X       0.4138      Y       0.3989      Z      -0.3799
       Tot       0.6890
    Quadrupole Moments (Debye-Ang)
        XX     -25.1532     XY       0.5730     YY     -23.3505
        XZ       0.3885     YZ      -0.8338     ZZ     -24.7648

 Total job time:  1853.03s(wall), 3037.81s(cpu)
        *  Thank you very much for using Q-Chem.  Have a nice day.  *
