 Q-Chem 4.3, Q-Chem, Inc., Pleasanton, CA (2015)
 Q-Chem 4.3.0 for Intel X86 Linux

User input:
--------------------------------------------------------------
$comment
XAS calculation for the 2b valence excited for water using cvs-adc(2)-x + 6-311+G* basis set
job 1 - determination of HF orbitals
$end

$molecule
0 1
6  -0.53635  2.900884  -0.186645
9  0.635824  2.596684  -0.090572
9  -1.043194  3.592152  0.652639
9  -1.479126  -0.010837  0.871329
9  -1.043365  2.884676  -1.308056
$end

$rem
jobtype      sp
sym_ignore true
exchange     hf
basis        6-31G*
unrestricted true
$end

--------------------------------------------------------------

   12    -435.3378897604      5.42E-06 Convergence criterion met
 Total energy in the final basis set = -435.3378897604
 Total job time:  3.07s(wall), 13.07s(cpu)
        *  Thank you very much for using Q-Chem.  Have a nice day.  *
 Q-Chem 4.3, Q-Chem, Inc., Pleasanton, CA (2015)
 Q-Chem 4.3.0 for Intel X86 Linux

User input:
--------------------------------------------------------------

$comment
job3 - cvs-adc(2) calculation
$end

$molecule
read
$end

$rem
mem_total 3000
mem_static 1500
sym_ignore true
scf_guess read
method cvs-adc(2)
basis 6-31G*
ee_singlets 20
cc_rest_occ 5                  !only excitations from the lowest N orbitals
unrestricted  true
max_scf_cycles 200
$end
--------------------------------------------------------------

             Standard Nuclear Orientation (Angstroms)
    I     Atom           X                Y                Z
 ----------------------------------------------------------------
    1      C      -0.5363500000     2.9008840000    -0.1866450000
    2      F       0.6358240000     2.5966840000    -0.0905720000
    3      F      -1.0431940000     3.5921520000     0.6526390000
    4      F      -1.4791260000    -0.0108370000     0.8713290000
    5      F      -1.0433650000     2.8846760000    -1.3080560000
 ----------------------------------------------------------------

    8    -435.3378901615      3.57E-09 Convergence criterion met
 Total energy in the final basis set = -435.3378901615
  Term symbol:  2 (-) A                                     R^2 =  6.18799e-14
  Excitation energy:                                             294.607675 eV
  Term symbol:  3 (-) A                                     R^2 =  6.29129e-14
  Excitation energy:                                             296.535472 eV
  Term symbol:  4 (-) A                                     R^2 =  5.20706e-14
  Excitation energy:                                             303.479497 eV
  Term symbol:  5 (-) A                                     R^2 =  5.77940e-14
  Excitation energy:                                             305.056415 eV
  Term symbol:  6 (-) A                                     R^2 =  1.73485e-14
  Excitation energy:                                             305.177468 eV
  Term symbol:  7 (-) A                                     R^2 =  2.01184e-14
  Excitation energy:                                             305.897721 eV
  Term symbol:  8 (-) A                                     R^2 =  2.89121e-14
  Excitation energy:                                             307.335662 eV
  Term symbol:  9 (-) A                                     R^2 =  2.08086e-14
  Excitation energy:                                             308.045238 eV
  Term symbol:  10 (-) A                                    R^2 =  5.58551e-14
  Excitation energy:                                             312.989131 eV
  Excited state 10 (A)                                             [converged]
  Term symbol:  11 (-) A                                    R^2 =  9.49451e-14
  Excitation energy:                                             314.097465 eV
  Excited state 11 (A)                                             [converged]
  Term symbol:  12 (-) A                                    R^2 =  7.14347e-14
  Excitation energy:                                             314.552348 eV
  Excited state 12 (A)                                             [converged]
  Term symbol:  13 (-) A                                    R^2 =  1.25331e-13
  Excitation energy:                                             314.638941 eV
  Excited state 13 (A)                                             [converged]
  Term symbol:  14 (-) A                                    R^2 =  1.02519e-13
  Excitation energy:                                             314.823529 eV
  Excited state 14 (A)                                             [converged]
  Term symbol:  15 (-) A                                    R^2 =  1.64019e-13
  Excitation energy:                                             314.989561 eV
  Excited state 15 (A)                                             [converged]
  Term symbol:  16 (-) A                                    R^2 =  3.73303e-13
  Excitation energy:                                             315.110125 eV
  Excited state 16 (A)                                             [converged]
  Term symbol:  17 (-) A                                    R^2 =  7.80240e-13
  Excitation energy:                                             316.034495 eV
  Excited state 17 (A)                                             [converged]
  Term symbol:  18 (-) A                                    R^2 =  2.53981e-08
  Excitation energy:                                             326.729730 eV
  Excited state 18 (A)                                             [converged]
  Term symbol:  19 (-) A                                    R^2 =  1.70073e-08
  Excitation energy:                                             326.751492 eV
  Excited state 19 (A)                                         [not converged]
  Term symbol:  20 (-) A                                    R^2 =  1.23941e-04
  Excitation energy:                                             331.801181 eV
  Excited state 20 (A)                                         [not converged]
  Term symbol:  21 (-) A                                    R^2 =  1.17437e-04
  Excitation energy:                                             331.973285 eV

                    Orbital Energies (a.u.)
 --------------------------------------------------------------

 Alpha MOs
 -- Occupied --
-26.576 -26.566 -26.561 -25.960 -11.769  -2.001  -1.898  -1.881
 -1.208  -1.154  -1.072  -1.069  -1.015  -0.903  -0.900  -0.876
 -0.868  -0.847  -0.321  -0.321  -0.290

 Beta MOs
 -- Occupied --
-26.576 -26.566 -26.561 -25.960 -11.769  -2.001  -1.898  -1.881
 -1.208  -1.154  -1.072  -1.069  -1.015  -0.903  -0.900  -0.876
 -0.868  -0.847  -0.321  -0.321  -0.290

          Ground-State Mulliken Net Atomic Charges

     Atom                 Charge (a.u.)    Spin (a.u.)
  --------------------------------------------------------
      1 C                     1.152877       0.000000
      2 F                    -0.101723       0.000000
      3 F                    -0.087716       0.000000
      4 F                    -0.835665       0.000000
      5 F                    -0.127772       0.000000
  --------------------------------------------------------
  Sum of atomic charges =     0.000000

                    Cartesian Multipole Moments
 -----------------------------------------------------------------
    Charge (ESU x 10^10)
                 0.0000
    Dipole Moment (Debye)
         X       3.7103      Y      11.4753      Z      -4.0270
       Tot      12.7148
    Quadrupole Moments (Debye-Ang)
        XX     -30.0609     XY      -6.0386     YY      11.0154
        XZ       5.2681     YZ      -1.8343     ZZ     -25.5658

 Total job time:  1825.39s(wall), 3005.56s(cpu)
        *  Thank you very much for using Q-Chem.  Have a nice day.  *
