 Q-Chem 4.3, Q-Chem, Inc., Pleasanton, CA (2015)
 Q-Chem 4.3.0 for Intel X86 Linux

User input:
--------------------------------------------------------------
$comment
XAS calculation for the 2b valence excited for water using cvs-adc(2)-x + 6-311+G* basis set
job 1 - determination of HF orbitals
$end

$molecule
0 1
6  -0.365272  3.144829  -0.379114
9  0.933356  2.997314  -0.296079
9  -0.960953  3.126249  0.701117
9  -2.17078  0.01542  1.257423
9  -0.856113  2.855108  -1.421845
$end

$rem
jobtype      sp
sym_ignore true
exchange     hf
basis        6-31G*
unrestricted true
$end

--------------------------------------------------------------

   16    -435.2725680895      4.39E-06 Convergence criterion met
 Total energy in the final basis set = -435.2725680895
 Total job time:  4.29s(wall), 16.04s(cpu)
        *  Thank you very much for using Q-Chem.  Have a nice day.  *
 Q-Chem 4.3, Q-Chem, Inc., Pleasanton, CA (2015)
 Q-Chem 4.3.0 for Intel X86 Linux

User input:
--------------------------------------------------------------

$comment
job3 - cvs-adc(2) calculation
$end

$molecule
read
$end

$rem
mem_total 3000
mem_static 1500
sym_ignore true
scf_guess read
method cvs-adc(2)
basis 6-31G*
ee_singlets 20
cc_rest_occ 5                  !only excitations from the lowest N orbitals
unrestricted  true
max_scf_cycles 200
$end
--------------------------------------------------------------

             Standard Nuclear Orientation (Angstroms)
    I     Atom           X                Y                Z
 ----------------------------------------------------------------
    1      C      -0.3652720000     3.1448290000    -0.3791140000
    2      F       0.9333560000     2.9973140000    -0.2960790000
    3      F      -0.9609530000     3.1262490000     0.7011170000
    4      F      -2.1707800000     0.0154200000     1.2574230000
    5      F      -0.8561130000     2.8551080000    -1.4218450000
 ----------------------------------------------------------------

   13    -435.2725679678      4.07E-09 Convergence criterion met
 Total energy in the final basis set = -435.2725679678
  Term symbol:  2 (-) A                                     R^2 =  5.59179e-09
  Excitation energy:                                             293.803691 eV
  Term symbol:  3 (-) A                                     R^2 =  3.31839e-09
  Excitation energy:                                             295.678180 eV
  Term symbol:  4 (-) A                                     R^2 =  1.45885e-10
  Excitation energy:                                             302.325301 eV
  Term symbol:  5 (-) A                                     R^2 =  3.56702e-10
  Excitation energy:                                             303.930117 eV
  Term symbol:  6 (-) A                                     R^2 =  1.75958e-09
  Excitation energy:                                             304.327262 eV
  Term symbol:  7 (-) A                                     R^2 =  2.67208e-09
  Excitation energy:                                             305.796797 eV
  Term symbol:  8 (-) A                                     R^2 =  3.16346e-09
  Excitation energy:                                             306.402228 eV
  Term symbol:  9 (-) A                                     R^2 =  3.57323e-09
  Excitation energy:                                             308.454485 eV
  Term symbol:  10 (-) A                                    R^2 =  2.62555e-09
  Excitation energy:                                             313.229097 eV
  Excited state 10 (A)                                             [converged]
  Term symbol:  11 (-) A                                    R^2 =  7.85213e-09
  Excitation energy:                                             314.414568 eV
  Excited state 11 (A)                                             [converged]
  Term symbol:  12 (-) A                                    R^2 =  6.43739e-09
  Excitation energy:                                             314.786270 eV
  Excited state 12 (A)                                             [converged]
  Term symbol:  13 (-) A                                    R^2 =  3.24253e-09
  Excitation energy:                                             314.960251 eV
  Excited state 13 (A)                                             [converged]
  Term symbol:  14 (-) A                                    R^2 =  3.21688e-09
  Excitation energy:                                             315.194630 eV
  Excited state 14 (A)                                             [converged]
  Term symbol:  15 (-) A                                    R^2 =  3.33195e-09
  Excitation energy:                                             315.271496 eV
  Excited state 15 (A)                                             [converged]
  Term symbol:  16 (-) A                                    R^2 =  2.57906e-09
  Excitation energy:                                             315.516402 eV
  Excited state 16 (A)                                             [converged]
  Term symbol:  17 (-) A                                    R^2 =  1.14637e-09
  Excitation energy:                                             316.140356 eV
  Excited state 17 (A)                                         [not converged]
  Term symbol:  18 (-) A                                    R^2 =  6.92528e-02
  Excitation energy:                                             321.715451 eV
  Excited state 18 (A)                                         [not converged]
  Term symbol:  19 (-) A                                    R^2 =  3.97619e-01
  Excitation energy:                                             323.142069 eV
  Excited state 19 (A)                                         [not converged]
  Term symbol:  20 (-) A                                    R^2 =  5.16655e-01
  Excitation energy:                                             324.456984 eV
  Excited state 20 (A)                                         [not converged]
  Term symbol:  21 (-) A                                    R^2 =  4.35698e-01
  Excitation energy:                                             329.430072 eV

                    Orbital Energies (a.u.)
 --------------------------------------------------------------

 Alpha MOs
 -- Occupied --
-26.646 -26.615 -26.590 -25.836 -11.831  -2.041  -1.944  -1.881
 -1.198  -1.107  -1.106  -1.097  -1.052  -0.944  -0.924  -0.919
 -0.892  -0.881  -0.217  -0.216  -0.216

 Beta MOs
 -- Occupied --
-26.646 -26.615 -26.590 -25.836 -11.831  -2.041  -1.944  -1.881
 -1.198  -1.107  -1.106  -1.097  -1.052  -0.944  -0.924  -0.919
 -0.892  -0.881  -0.217  -0.216  -0.216

          Ground-State Mulliken Net Atomic Charges

     Atom                 Charge (a.u.)    Spin (a.u.)
  --------------------------------------------------------
      1 C                     1.268591       0.000000
      2 F                    -0.182009       0.000000
      3 F                    -0.057549       0.000000
      4 F                    -0.994276       0.000000
      5 F                    -0.034756       0.000000
  --------------------------------------------------------
  Sum of atomic charges =     0.000000

                    Cartesian Multipole Moments
 -----------------------------------------------------------------
    Charge (ESU x 10^10)
                 0.0000
    Dipole Moment (Debye)
         X       7.8950      Y      14.8211      Z      -7.7846
       Tot      18.5093
    Quadrupole Moments (Debye-Ang)
        XX     -43.8462     XY      -7.1962     YY      25.1762
        XZ      13.7492     YZ      -5.9793     ZZ     -28.6254

 Total job time:  2214.01s(wall), 3581.84s(cpu)
        *  Thank you very much for using Q-Chem.  Have a nice day.  *
