 Q-Chem 4.3, Q-Chem, Inc., Pleasanton, CA (2015)
 Q-Chem 4.3.0 for Intel X86 Linux

User input:
--------------------------------------------------------------
$comment
XAS calculation for the 2b valence excited for water using cvs-adc(2)-x + 6-311+G* basis set
job 1 - determination of HF orbitals
$end

$molecule
0 1
6  -0.51508  2.649637  -0.182914
9  0.791348  2.712186  -0.182375
9  -1.034352  3.306155  0.711762
9  -1.700379  0.373542  0.925412
9  -0.954467  2.804676  -1.340849
$end

$rem
jobtype      sp
sym_ignore true
exchange     hf
basis        6-31G*
unrestricted true
$end

--------------------------------------------------------------

   12    -435.3585071413      7.48E-06 Convergence criterion met
 Total energy in the final basis set = -435.3585071413
 Total job time:  3.16s(wall), 14.02s(cpu)
        *  Thank you very much for using Q-Chem.  Have a nice day.  *
 Q-Chem 4.3, Q-Chem, Inc., Pleasanton, CA (2015)
 Q-Chem 4.3.0 for Intel X86 Linux

User input:
--------------------------------------------------------------

$comment
job3 - cvs-adc(2) calculation
$end

$molecule
read
$end

$rem
mem_total 3000
mem_static 1500
sym_ignore true
scf_guess read
method cvs-adc(2)
basis 6-31G*
ee_singlets 20
cc_rest_occ 5                  !only excitations from the lowest N orbitals
unrestricted  true
max_scf_cycles 200
$end
--------------------------------------------------------------

             Standard Nuclear Orientation (Angstroms)
    I     Atom           X                Y                Z
 ----------------------------------------------------------------
    1      C      -0.5150800000     2.6496370000    -0.1829140000
    2      F       0.7913480000     2.7121860000    -0.1823750000
    3      F      -1.0343520000     3.3061550000     0.7117620000
    4      F      -1.7003790000     0.3735420000     0.9254120000
    5      F      -0.9544670000     2.8046760000    -1.3408490000
 ----------------------------------------------------------------

    8    -435.3585073544      7.22E-09 Convergence criterion met
 Total energy in the final basis set = -435.3585073544
  Term symbol:  2 (-) A                                     R^2 =  7.92154e-14
  Excitation energy:                                             294.058589 eV
  Term symbol:  3 (-) A                                     R^2 =  3.56362e-14
  Excitation energy:                                             295.905297 eV
  Term symbol:  4 (-) A                                     R^2 =  1.04862e-13
  Excitation energy:                                             302.136879 eV
  Term symbol:  5 (-) A                                     R^2 =  9.12317e-14
  Excitation energy:                                             303.779617 eV
  Term symbol:  6 (-) A                                     R^2 =  1.04536e-13
  Excitation energy:                                             304.231671 eV
  Term symbol:  7 (-) A                                     R^2 =  6.84631e-14
  Excitation energy:                                             304.529292 eV
  Term symbol:  8 (-) A                                     R^2 =  8.56908e-14
  Excitation energy:                                             305.750384 eV
  Term symbol:  9 (-) A                                     R^2 =  4.03694e-14
  Excitation energy:                                             306.468383 eV
  Term symbol:  10 (-) A                                    R^2 =  4.72697e-14
  Excitation energy:                                             313.255049 eV
  Excited state 10 (A)                                             [converged]
  Term symbol:  11 (-) A                                    R^2 =  5.26231e-14
  Excitation energy:                                             313.707818 eV
  Excited state 11 (A)                                             [converged]
  Term symbol:  12 (-) A                                    R^2 =  6.47372e-14
  Excitation energy:                                             313.868588 eV
  Excited state 12 (A)                                             [converged]
  Term symbol:  13 (-) A                                    R^2 =  7.08336e-14
  Excitation energy:                                             313.999004 eV
  Excited state 13 (A)                                             [converged]
  Term symbol:  14 (-) A                                    R^2 =  8.16464e-14
  Excitation energy:                                             314.364569 eV
  Excited state 14 (A)                                             [converged]
  Term symbol:  15 (-) A                                    R^2 =  5.53012e-14
  Excitation energy:                                             314.468516 eV
  Excited state 15 (A)                                             [converged]
  Term symbol:  16 (-) A                                    R^2 =  2.24937e-13
  Excitation energy:                                             314.715650 eV
  Excited state 16 (A)                                             [converged]
  Term symbol:  17 (-) A                                    R^2 =  5.82332e-13
  Excitation energy:                                             315.765375 eV
  Excited state 17 (A)                                             [converged]
  Term symbol:  18 (-) A                                    R^2 =  4.93078e-12
  Excitation energy:                                             326.206345 eV
  Excited state 18 (A)                                             [converged]
  Term symbol:  19 (-) A                                    R^2 =  7.73788e-12
  Excitation energy:                                             326.280618 eV
  Excited state 19 (A)                                         [not converged]
  Term symbol:  20 (-) A                                    R^2 =  1.08650e-05
  Excitation energy:                                             331.257300 eV
  Excited state 20 (A)                                         [not converged]
  Term symbol:  21 (-) A                                    R^2 =  3.47773e-05
  Excitation energy:                                             331.393578 eV

                    Orbital Energies (a.u.)
 --------------------------------------------------------------

 Alpha MOs
 -- Occupied --
-26.515 -26.515 -26.492 -26.103 -11.725  -1.922  -1.829  -1.786
 -1.323  -1.099  -1.001  -0.991  -0.942  -0.850  -0.833  -0.817
 -0.800  -0.787  -0.440  -0.440  -0.372

 Beta MOs
 -- Occupied --
-26.515 -26.515 -26.492 -26.103 -11.725  -1.922  -1.829  -1.786
 -1.323  -1.099  -1.001  -0.991  -0.942  -0.850  -0.833  -0.817
 -0.800  -0.787  -0.440  -0.440  -0.372

          Ground-State Mulliken Net Atomic Charges

     Atom                 Charge (a.u.)    Spin (a.u.)
  --------------------------------------------------------
      1 C                     1.127931       0.000000
      2 F                    -0.228235       0.000000
      3 F                    -0.121882       0.000000
      4 F                    -0.617052       0.000000
      5 F                    -0.160762       0.000000
  --------------------------------------------------------
  Sum of atomic charges =     0.000000

                    Cartesian Multipole Moments
 -----------------------------------------------------------------
    Charge (ESU x 10^10)
                 0.0000
    Dipole Moment (Debye)
         X       3.0917      Y       6.5337      Z      -3.1229
       Tot       7.8741
    Quadrupole Moments (Debye-Ang)
        XX     -30.9157     XY      -2.8229     YY      -2.9895
        XZ       4.6953     YZ      -2.3418     ZZ     -25.6369

 Total job time:  2058.86s(wall), 3332.45s(cpu)
        *  Thank you very much for using Q-Chem.  Have a nice day.  *
