 Q-Chem 4.3, Q-Chem, Inc., Pleasanton, CA (2015)
 Q-Chem 4.3.0 for Intel X86 Linux

User input:
--------------------------------------------------------------
$comment
XAS calculation for the 2b valence excited for water using cvs-adc(2)-x + 6-311+G* basis set
job 1 - determination of HF orbitals
$end

$molecule
0 1
6  -0.441718  3.194441  -0.305939
9  0.627256  2.603824  -0.097858
9  -1.033413  3.56664  0.639517
9  -1.552481  -0.180215  0.947391
9  -1.025374  2.884581  -1.288502
$end

$rem
jobtype      sp
sym_ignore true
exchange     hf
basis        6-31G*
unrestricted true
$end

--------------------------------------------------------------

   16    -435.2797736875      5.69E-06 Convergence criterion met
 Total energy in the final basis set = -435.2797736875
 Total job time:  4.14s(wall), 17.66s(cpu)
        *  Thank you very much for using Q-Chem.  Have a nice day.  *
 Q-Chem 4.3, Q-Chem, Inc., Pleasanton, CA (2015)
 Q-Chem 4.3.0 for Intel X86 Linux

User input:
--------------------------------------------------------------

$comment
job3 - cvs-adc(2) calculation
$end

$molecule
read
$end

$rem
mem_total 3000
mem_static 1500
sym_ignore true
scf_guess read
method cvs-adc(2)
basis 6-31G*
ee_singlets 20
cc_rest_occ 5                  !only excitations from the lowest N orbitals
unrestricted  true
max_scf_cycles 200
$end
--------------------------------------------------------------

             Standard Nuclear Orientation (Angstroms)
    I     Atom           X                Y                Z
 ----------------------------------------------------------------
    1      C      -0.4417180000     3.1944410000    -0.3059390000
    2      F       0.6272560000     2.6038240000    -0.0978580000
    3      F      -1.0334130000     3.5666400000     0.6395170000
    4      F      -1.5524810000    -0.1802150000     0.9473910000
    5      F      -1.0253740000     2.8845810000    -1.2885020000
 ----------------------------------------------------------------

   10    -435.2797738870      7.48E-09 Convergence criterion met
 Total energy in the final basis set = -435.2797738870
  Term symbol:  2 (-) A                                     R^2 =  2.58363e-13
  Excitation energy:                                             293.965370 eV
  Term symbol:  3 (-) A                                     R^2 =  2.85468e-13
  Excitation energy:                                             295.806069 eV
  Term symbol:  4 (-) A                                     R^2 =  2.99637e-13
  Excitation energy:                                             304.158939 eV
  Term symbol:  5 (-) A                                     R^2 =  2.62051e-13
  Excitation energy:                                             305.445524 eV
  Term symbol:  6 (-) A                                     R^2 =  1.07926e-13
  Excitation energy:                                             305.881504 eV
  Term symbol:  7 (-) A                                     R^2 =  2.22069e-13
  Excitation energy:                                             306.737179 eV
  Term symbol:  8 (-) A                                     R^2 =  1.87211e-13
  Excitation energy:                                             307.354126 eV
  Term symbol:  9 (-) A                                     R^2 =  5.74154e-13
  Excitation energy:                                             308.790379 eV
  Term symbol:  10 (-) A                                    R^2 =  1.55822e-12
  Excitation energy:                                             312.674432 eV
  Excited state 10 (A)                                             [converged]
  Term symbol:  11 (-) A                                    R^2 =  2.31521e-12
  Excitation energy:                                             313.976949 eV
  Excited state 11 (A)                                             [converged]
  Term symbol:  12 (-) A                                    R^2 =  7.80747e-13
  Excitation energy:                                             314.093235 eV
  Excited state 12 (A)                                             [converged]
  Term symbol:  13 (-) A                                    R^2 =  3.72021e-12
  Excitation energy:                                             314.319096 eV
  Excited state 13 (A)                                             [converged]
  Term symbol:  14 (-) A                                    R^2 =  1.18273e-12
  Excitation energy:                                             314.542018 eV
  Excited state 14 (A)                                             [converged]
  Term symbol:  15 (-) A                                    R^2 =  4.72220e-12
  Excitation energy:                                             314.759334 eV
  Excited state 15 (A)                                             [converged]
  Term symbol:  16 (-) A                                    R^2 =  4.58255e-12
  Excitation energy:                                             314.852531 eV
  Excited state 16 (A)                                             [converged]
  Term symbol:  17 (-) A                                    R^2 =  5.27033e-12
  Excitation energy:                                             315.975835 eV
  Excited state 17 (A)                                             [converged]
  Term symbol:  18 (-) A                                    R^2 =  9.16855e-09
  Excitation energy:                                             322.415577 eV
  Excited state 18 (A)                                             [converged]
  Term symbol:  19 (-) A                                    R^2 =  1.53032e-08
  Excitation energy:                                             322.421393 eV
  Excited state 19 (A)                                         [not converged]
  Term symbol:  20 (-) A                                    R^2 =  5.65173e-01
  Excitation energy:                                             326.455953 eV
  Excited state 20 (A)                                         [not converged]
  Term symbol:  21 (-) A                                    R^2 =  1.13241e-03
  Excitation energy:                                             331.252006 eV

                    Orbital Energies (a.u.)
 --------------------------------------------------------------

 Alpha MOs
 -- Occupied --
-26.613 -26.609 -26.579 -25.863 -11.798  -2.052  -1.950  -1.902
 -1.188  -1.128  -1.113  -1.103  -1.059  -0.937  -0.929  -0.912
 -0.887  -0.872  -0.239  -0.239  -0.231

 Beta MOs
 -- Occupied --
-26.613 -26.609 -26.579 -25.863 -11.798  -2.052  -1.950  -1.902
 -1.188  -1.128  -1.113  -1.103  -1.059  -0.937  -0.929  -0.912
 -0.887  -0.872  -0.239  -0.239  -0.231

          Ground-State Mulliken Net Atomic Charges

     Atom                 Charge (a.u.)    Spin (a.u.)
  --------------------------------------------------------
      1 C                     1.157255       0.000000
      2 F                    -0.113602       0.000000
      3 F                    -0.036773       0.000000
      4 F                    -0.957359       0.000000
      5 F                    -0.049521       0.000000
  --------------------------------------------------------
  Sum of atomic charges =     0.000000

                    Cartesian Multipole Moments
 -----------------------------------------------------------------
    Charge (ESU x 10^10)
                 0.0000
    Dipole Moment (Debye)
         X       4.8411      Y      15.4942      Z      -5.7077
       Tot      17.2072
    Quadrupole Moments (Debye-Ang)
        XX     -32.2212     XY      -8.1547     YY      25.4869
        XZ       7.2513     YZ      -3.8891     ZZ     -25.7465

 Total job time:  2310.18s(wall), 3829.29s(cpu)
        *  Thank you very much for using Q-Chem.  Have a nice day.  *
