 Q-Chem 4.3, Q-Chem, Inc., Pleasanton, CA (2015)
 Q-Chem 4.3.0 for Intel X86 Linux

User input:
--------------------------------------------------------------
$comment
XAS calculation for the 2b valence excited for water using cvs-adc(2)-x + 6-311+G* basis set
job 1 - determination of HF orbitals
$end

$molecule
0 1
6  -0.620645  2.504907  -0.078747
9  0.583187  2.329654  0.007443
9  -1.132505  3.279907  0.782587
9  -1.146066  1.126088  0.447039
9  -1.132149  2.546855  -1.190402
$end

$rem
jobtype      sp
sym_ignore true
exchange     hf
basis        6-31G*
unrestricted true
$end

--------------------------------------------------------------

    8    -435.5869070304      6.81E-06 Convergence criterion met
 Total energy in the final basis set = -435.5869070304
 Total job time:  2.27s(wall), 10.48s(cpu)
        *  Thank you very much for using Q-Chem.  Have a nice day.  *
 Q-Chem 4.3, Q-Chem, Inc., Pleasanton, CA (2015)
 Q-Chem 4.3.0 for Intel X86 Linux

User input:
--------------------------------------------------------------

$comment
job3 - cvs-adc(2) calculation
$end

$molecule
read
$end

$rem
mem_total 3000
mem_static 1500
sym_ignore true
scf_guess read
method cvs-adc(2)
basis 6-31G*
ee_singlets 20
cc_rest_occ 5                  !only excitations from the lowest N orbitals
unrestricted  true
max_scf_cycles 200
$end
--------------------------------------------------------------

             Standard Nuclear Orientation (Angstroms)
    I     Atom           X                Y                Z
 ----------------------------------------------------------------
    1      C      -0.6206450000     2.5049070000    -0.0787470000
    2      F       0.5831870000     2.3296540000     0.0074430000
    3      F      -1.1325050000     3.2799070000     0.7825870000
    4      F      -1.1460660000     1.1260880000     0.4470390000
    5      F      -1.1321490000     2.5468550000    -1.1904020000
 ----------------------------------------------------------------

    6    -435.5869071448      6.05E-09 Convergence criterion met
 Total energy in the final basis set = -435.5869071448
  Term symbol:  2 (-) A                                     R^2 =  1.27904e-06
  Excitation energy:                                             297.653373 eV
  Term symbol:  3 (-) A                                     R^2 =  1.85479e-06
  Excitation energy:                                             299.720423 eV
  Term symbol:  4 (-) A                                     R^2 =  3.87589e-06
  Excitation energy:                                             303.353271 eV
  Term symbol:  5 (-) A                                     R^2 =  5.85910e-07
  Excitation energy:                                             304.389510 eV
  Term symbol:  6 (-) A                                     R^2 =  3.96165e-07
  Excitation energy:                                             304.812331 eV
  Term symbol:  7 (-) A                                     R^2 =  5.56051e-07
  Excitation energy:                                             305.627935 eV
  Term symbol:  8 (-) A                                     R^2 =  2.88099e-07
  Excitation energy:                                             306.439883 eV
  Term symbol:  9 (-) A                                     R^2 =  1.80358e-07
  Excitation energy:                                             306.998961 eV
  Term symbol:  10 (-) A                                    R^2 =  3.27040e-06
  Excitation energy:                                             311.935797 eV
  Excited state 10 (A)                                             [converged]
  Term symbol:  11 (-) A                                    R^2 =  5.19698e-07
  Excitation energy:                                             313.154313 eV
  Excited state 11 (A)                                             [converged]
  Term symbol:  12 (-) A                                    R^2 =  3.42405e-07
  Excitation energy:                                             313.892701 eV
  Excited state 12 (A)                                             [converged]
  Term symbol:  13 (-) A                                    R^2 =  4.23156e-07
  Excitation energy:                                             314.054990 eV
  Excited state 13 (A)                                             [converged]
  Term symbol:  14 (-) A                                    R^2 =  5.60608e-07
  Excitation energy:                                             314.271577 eV
  Excited state 14 (A)                                             [converged]
  Term symbol:  15 (-) A                                    R^2 =  5.26681e-07
  Excitation energy:                                             314.470560 eV
  Excited state 15 (A)                                         [not converged]
  Term symbol:  16 (-) A                                    R^2 =  1.95517e-06
  Excitation energy:                                             315.821382 eV
  Excited state 16 (A)                                         [not converged]
  Term symbol:  17 (-) A                                    R^2 =  1.81766e-06
  Excitation energy:                                             316.237845 eV
  Excited state 17 (A)                                         [not converged]
  Term symbol:  18 (-) A                                    R^2 =  8.78434e-04
  Excitation energy:                                             330.745752 eV
  Excited state 18 (A)                                         [not converged]
  Term symbol:  19 (-) A                                    R^2 =  5.54886e-04
  Excitation energy:                                             330.779976 eV
  Excited state 19 (A)                                         [not converged]
  Term symbol:  20 (-) A                                    R^2 =  1.48211e-03
  Excitation energy:                                             330.883008 eV
  Excited state 20 (A)                                         [not converged]
  Term symbol:  21 (-) A                                    R^2 =  1.70815e-03
  Excitation energy:                                             330.904396 eV

                    Orbital Energies (a.u.)
 --------------------------------------------------------------

 Alpha MOs
 -- Occupied --
-26.421 -26.420 -26.401 -26.254 -11.620  -1.857  -1.757  -1.727
 -1.523  -1.026  -0.936  -0.928  -0.889  -0.781  -0.773  -0.753
 -0.740  -0.711  -0.595  -0.591  -0.590

 Beta MOs
 -- Occupied --
-26.421 -26.420 -26.401 -26.254 -11.620  -1.857  -1.757  -1.727
 -1.523  -1.026  -0.936  -0.928  -0.889  -0.781  -0.773  -0.753
 -0.740  -0.711  -0.595  -0.591  -0.590

          Ground-State Mulliken Net Atomic Charges

     Atom                 Charge (a.u.)    Spin (a.u.)
  --------------------------------------------------------
      1 C                     1.251159       0.000000
      2 F                    -0.219864       0.000000
      3 F                    -0.277593       0.000000
      4 F                    -0.527469       0.000000
      5 F                    -0.226234       0.000000
  --------------------------------------------------------
  Sum of atomic charges =     0.000000

                    Cartesian Multipole Moments
 -----------------------------------------------------------------
    Charge (ESU x 10^10)
                 0.0000
    Dipole Moment (Debye)
         X       1.0046      Y       2.1437      Z      -1.0478
       Tot       2.5889
    Quadrupole Moments (Debye-Ang)
        XX     -25.7072     XY       0.2636     YY     -16.0449
        XZ       1.0180     YZ      -1.9085     ZZ     -24.3970

 Total job time:  2380.12s(wall), 3921.34s(cpu)
        *  Thank you very much for using Q-Chem.  Have a nice day.  *
