 Q-Chem 4.3, Q-Chem, Inc., Pleasanton, CA (2015)
 Q-Chem 4.3.0 for Intel X86 Linux

User input:
--------------------------------------------------------------
$comment
XAS calculation for the 2b valence excited for water using cvs-adc(2)-x + 6-311+G* basis set
job 1 - determination of HF orbitals
$end

$molecule
0 1
6  -0.492721  2.70725  -0.17487
9  0.736574  2.639833  -0.150176
9  -1.050025  3.26043  0.713162
9  -1.61448  0.513808  0.84907
9  -0.984803  2.746988  -1.303032
$end

$rem
jobtype      sp
sym_ignore true
exchange     hf
basis        6-31G*
unrestricted true
$end

--------------------------------------------------------------

   10    -435.3909630180      3.81E-06 Convergence criterion met
 Total energy in the final basis set = -435.3909630180
 Total job time:  2.70s(wall), 12.16s(cpu)
        *  Thank you very much for using Q-Chem.  Have a nice day.  *
 Q-Chem 4.3, Q-Chem, Inc., Pleasanton, CA (2015)
 Q-Chem 4.3.0 for Intel X86 Linux

User input:
--------------------------------------------------------------

$comment
job3 - cvs-adc(2) calculation
$end

$molecule
read
$end

$rem
mem_total 3000
mem_static 1500
sym_ignore true
scf_guess read
method cvs-adc(2)
basis 6-31G*
ee_singlets 20
cc_rest_occ 5                  !only excitations from the lowest N orbitals
unrestricted  true
max_scf_cycles 200
$end
--------------------------------------------------------------

             Standard Nuclear Orientation (Angstroms)
    I     Atom           X                Y                Z
 ----------------------------------------------------------------
    1      C      -0.4927210000     2.7072500000    -0.1748700000
    2      F       0.7365740000     2.6398330000    -0.1501760000
    3      F      -1.0500250000     3.2604300000     0.7131620000
    4      F      -1.6144800000     0.5138080000     0.8490700000
    5      F      -0.9848030000     2.7469880000    -1.3030320000
 ----------------------------------------------------------------

    7    -435.3909633457      6.04E-09 Convergence criterion met
 Total energy in the final basis set = -435.3909633457
  Term symbol:  2 (-) A                                     R^2 =  9.59640e-11
  Excitation energy:                                             294.641907 eV
  Term symbol:  3 (-) A                                     R^2 =  4.87154e-11
  Excitation energy:                                             296.621214 eV
  Term symbol:  4 (-) A                                     R^2 =  1.04988e-12
  Excitation energy:                                             303.920435 eV
  Term symbol:  5 (-) A                                     R^2 =  4.05908e-12
  Excitation energy:                                             304.676234 eV
  Term symbol:  6 (-) A                                     R^2 =  9.20154e-11
  Excitation energy:                                             305.610961 eV
  Term symbol:  7 (-) A                                     R^2 =  3.05378e-12
  Excitation energy:                                             306.229452 eV
  Term symbol:  8 (-) A                                     R^2 =  5.22130e-12
  Excitation energy:                                             306.853308 eV
  Term symbol:  9 (-) A                                     R^2 =  7.02007e-12
  Excitation energy:                                             308.266682 eV
  Term symbol:  10 (-) A                                    R^2 =  3.70116e-11
  Excitation energy:                                             312.909948 eV
  Excited state 10 (A)                                             [converged]
  Term symbol:  11 (-) A                                    R^2 =  2.12156e-11
  Excitation energy:                                             314.107341 eV
  Excited state 11 (A)                                             [converged]
  Term symbol:  12 (-) A                                    R^2 =  5.86224e-11
  Excitation energy:                                             314.423752 eV
  Excited state 12 (A)                                             [converged]
  Term symbol:  13 (-) A                                    R^2 =  7.22441e-12
  Excitation energy:                                             314.551635 eV
  Excited state 13 (A)                                             [converged]
  Term symbol:  14 (-) A                                    R^2 =  5.10121e-11
  Excitation energy:                                             314.953905 eV
  Excited state 14 (A)                                             [converged]
  Term symbol:  15 (-) A                                    R^2 =  8.45893e-11
  Excitation energy:                                             314.989523 eV
  Excited state 15 (A)                                             [converged]
  Term symbol:  16 (-) A                                    R^2 =  3.36705e-10
  Excitation energy:                                             316.278744 eV
  Excited state 16 (A)                                             [converged]
  Term symbol:  17 (-) A                                    R^2 =  2.12284e-10
  Excitation energy:                                             317.323278 eV
  Excited state 17 (A)                                             [converged]
  Term symbol:  18 (-) A                                    R^2 =  7.57382e-07
  Excitation energy:                                             329.599930 eV
  Excited state 18 (A)                                             [converged]
  Term symbol:  19 (-) A                                    R^2 =  4.90816e-07
  Excitation energy:                                             329.628286 eV
  Excited state 19 (A)                                         [not converged]
  Term symbol:  20 (-) A                                    R^2 =  5.55052e-05
  Excitation energy:                                             331.627414 eV
  Excited state 20 (A)                                         [not converged]
  Term symbol:  21 (-) A                                    R^2 =  1.82450e-05
  Excitation energy:                                             331.811065 eV

                    Orbital Energies (a.u.)
 --------------------------------------------------------------

 Alpha MOs
 -- Occupied --
-26.531 -26.527 -26.522 -26.043 -11.732  -1.965  -1.861  -1.839
 -1.279  -1.118  -1.035  -1.032  -0.976  -0.871  -0.862  -0.837
 -0.831  -0.809  -0.392  -0.392  -0.356

 Beta MOs
 -- Occupied --
-26.531 -26.527 -26.522 -26.043 -11.732  -1.965  -1.861  -1.839
 -1.279  -1.118  -1.035  -1.032  -0.976  -0.871  -0.862  -0.837
 -0.831  -0.809  -0.392  -0.392  -0.356

          Ground-State Mulliken Net Atomic Charges

     Atom                 Charge (a.u.)    Spin (a.u.)
  --------------------------------------------------------
      1 C                     1.094992       0.000000
      2 F                    -0.149214       0.000000
      3 F                    -0.071106       0.000000
      4 F                    -0.729948       0.000000
      5 F                    -0.144723       0.000000
  --------------------------------------------------------
  Sum of atomic charges =     0.000000

                    Cartesian Multipole Moments
 -----------------------------------------------------------------
    Charge (ESU x 10^10)
                 0.0000
    Dipole Moment (Debye)
         X       3.7536      Y       7.6127      Z      -3.3312
       Tot       9.1181
    Quadrupole Moments (Debye-Ang)
        XX     -31.0237     XY      -1.8896     YY       2.3090
        XZ       4.7306     YZ      -2.7666     ZZ     -25.3323

 Total job time:  2308.48s(wall), 3647.92s(cpu)
        *  Thank you very much for using Q-Chem.  Have a nice day.  *
