 Q-Chem 4.3, Q-Chem, Inc., Pleasanton, CA (2015)
 Q-Chem 4.3.0 for Intel X86 Linux

User input:
--------------------------------------------------------------
$comment
XAS calculation for the 2b valence excited for water using cvs-adc(2)-x + 6-311+G* basis set
job 1 - determination of HF orbitals
$end

$molecule
0 1
6  -0.668561  2.396881  0.007655
9  0.61027  2.346569  -0.001376
9  -1.137281  3.283505  0.784285
9  -1.14408  1.179269  0.435088
9  -1.143091  2.558172  -1.228631
$end

$rem
jobtype      sp
sym_ignore true
exchange     hf
basis        6-31G*
unrestricted true
$end

--------------------------------------------------------------

    8    -435.6379913305      3.51E-06 Convergence criterion met
 Total energy in the final basis set = -435.6379913305
 Total job time:  2.29s(wall), 8.68s(cpu)
        *  Thank you very much for using Q-Chem.  Have a nice day.  *
 Q-Chem 4.3, Q-Chem, Inc., Pleasanton, CA (2015)
 Q-Chem 4.3.0 for Intel X86 Linux

User input:
--------------------------------------------------------------

$comment
job3 - cvs-adc(2) calculation
$end

$molecule
read
$end

$rem
mem_total 3000
mem_static 1500
sym_ignore true
scf_guess read
method cvs-adc(2)
basis 6-31G*
ee_singlets 20
cc_rest_occ 5                  !only excitations from the lowest N orbitals
unrestricted  true
max_scf_cycles 200
$end
--------------------------------------------------------------

             Standard Nuclear Orientation (Angstroms)
    I     Atom           X                Y                Z
 ----------------------------------------------------------------
    1      C      -0.6685610000     2.3968810000     0.0076550000
    2      F       0.6102700000     2.3465690000    -0.0013760000
    3      F      -1.1372810000     3.2835050000     0.7842850000
    4      F      -1.1440800000     1.1792690000     0.4350880000
    5      F      -1.1430910000     2.5581720000    -1.2286310000
 ----------------------------------------------------------------

    5    -435.6379914402      4.41E-09 Convergence criterion met
 Total energy in the final basis set = -435.6379914402
  Term symbol:  2 (-) A                                     R^2 =  4.37566e-13
  Excitation energy:                                             300.149295 eV
  Term symbol:  3 (-) A                                     R^2 =  1.01048e-12
  Excitation energy:                                             301.335924 eV
  Term symbol:  4 (-) A                                     R^2 =  1.72122e-13
  Excitation energy:                                             302.264444 eV
  Term symbol:  5 (-) A                                     R^2 =  1.68140e-12
  Excitation energy:                                             302.576574 eV
  Term symbol:  6 (-) A                                     R^2 =  3.15869e-13
  Excitation energy:                                             303.530406 eV
  Term symbol:  7 (-) A                                     R^2 =  5.44172e-13
  Excitation energy:                                             303.721756 eV
  Term symbol:  8 (-) A                                     R^2 =  7.33504e-13
  Excitation energy:                                             304.738667 eV
  Term symbol:  9 (-) A                                     R^2 =  9.59741e-13
  Excitation energy:                                             306.245229 eV
  Term symbol:  10 (-) A                                    R^2 =  4.43519e-13
  Excitation energy:                                             313.042374 eV
  Excited state 10 (A)                                             [converged]
  Term symbol:  11 (-) A                                    R^2 =  1.57451e-13
  Excitation energy:                                             313.677644 eV
  Excited state 11 (A)                                             [converged]
  Term symbol:  12 (-) A                                    R^2 =  6.70264e-13
  Excitation energy:                                             313.745864 eV
  Excited state 12 (A)                                             [converged]
  Term symbol:  13 (-) A                                    R^2 =  3.16477e-13
  Excitation energy:                                             313.872930 eV
  Excited state 13 (A)                                             [converged]
  Term symbol:  14 (-) A                                    R^2 =  1.97377e-13
  Excitation energy:                                             314.086364 eV
  Excited state 14 (A)                                             [converged]
  Term symbol:  15 (-) A                                    R^2 =  2.47908e-13
  Excitation energy:                                             314.288834 eV
  Excited state 15 (A)                                             [converged]
  Term symbol:  16 (-) A                                    R^2 =  1.92569e-13
  Excitation energy:                                             314.305088 eV
  Excited state 16 (A)                                             [converged]
  Term symbol:  17 (-) A                                    R^2 =  3.00383e-13
  Excitation energy:                                             314.768467 eV
  Excited state 17 (A)                                         [not converged]
  Term symbol:  18 (-) A                                    R^2 =  2.71042e-06
  Excitation energy:                                             330.158363 eV
  Excited state 18 (A)                                         [not converged]
  Term symbol:  19 (-) A                                    R^2 =  2.29536e-06
  Excitation energy:                                             330.184937 eV
  Excited state 19 (A)                                         [not converged]
  Term symbol:  20 (-) A                                    R^2 =  1.93489e-06
  Excitation energy:                                             330.206655 eV
  Excited state 20 (A)                                             [converged]
  Term symbol:  21 (-) A                                    R^2 =  7.02510e-07
  Excitation energy:                                             330.230626 eV

                    Orbital Energies (a.u.)
 --------------------------------------------------------------

 Alpha MOs
 -- Occupied --
-26.395 -26.393 -26.368 -26.347 -11.611  -1.814  -1.708  -1.674
 -1.637  -1.007  -0.897  -0.888  -0.879  -0.761  -0.756  -0.719
 -0.704  -0.685  -0.681  -0.665  -0.659

 Beta MOs
 -- Occupied --
-26.395 -26.393 -26.368 -26.347 -11.611  -1.814  -1.708  -1.674
 -1.637  -1.007  -0.897  -0.888  -0.879  -0.761  -0.756  -0.719
 -0.704  -0.685  -0.681  -0.665  -0.659

          Ground-State Mulliken Net Atomic Charges

     Atom                 Charge (a.u.)    Spin (a.u.)
  --------------------------------------------------------
      1 C                     1.327435       0.000000
      2 F                    -0.297910       0.000000
      3 F                    -0.286795       0.000000
      4 F                    -0.390449       0.000000
      5 F                    -0.352279       0.000000
  --------------------------------------------------------
  Sum of atomic charges =     0.000000

                    Cartesian Multipole Moments
 -----------------------------------------------------------------
    Charge (ESU x 10^10)
                 0.0000
    Dipole Moment (Debye)
         X       0.3682      Y       0.6103      Z       0.1399
       Tot       0.7264
    Quadrupole Moments (Debye-Ang)
        XX     -25.3013     XY       0.2587     YY     -22.2784
        XZ      -0.1454     YZ       0.6046     ZZ     -25.0459

 Total job time:  1963.92s(wall), 3189.36s(cpu)
        *  Thank you very much for using Q-Chem.  Have a nice day.  *
