 Q-Chem 4.3, Q-Chem, Inc., Pleasanton, CA (2015)
 Q-Chem 4.3.0 for Intel X86 Linux

User input:
--------------------------------------------------------------
$comment
XAS calculation for the 2b valence excited for water using cvs-adc(2)-x + 6-311+G* basis set
job 1 - determination of HF orbitals
$end

$molecule
0 1
6  -0.518301  3.004406  -0.20402
9  0.731  2.414949  -0.051354
9  -1.135054  3.107039  0.78786
9  -1.411751  0.963152  0.645767
9  -1.104165  2.533372  -1.24966
$end

$rem
jobtype      sp
sym_ignore true
exchange     hf
basis        6-31G*
unrestricted true
$end

--------------------------------------------------------------

   14    -435.3159389509      4.01E-06 Convergence criterion met
 Total energy in the final basis set = -435.3159389509
 Total job time:  3.82s(wall), 15.72s(cpu)
        *  Thank you very much for using Q-Chem.  Have a nice day.  *
 Q-Chem 4.3, Q-Chem, Inc., Pleasanton, CA (2015)
 Q-Chem 4.3.0 for Intel X86 Linux

User input:
--------------------------------------------------------------

$comment
job3 - cvs-adc(2) calculation
$end

$molecule
read
$end

$rem
mem_total 3000
mem_static 1500
sym_ignore true
scf_guess read
method cvs-adc(2)
basis 6-31G*
ee_singlets 20
cc_rest_occ 5                  !only excitations from the lowest N orbitals
unrestricted  true
max_scf_cycles 200
$end
--------------------------------------------------------------

             Standard Nuclear Orientation (Angstroms)
    I     Atom           X                Y                Z
 ----------------------------------------------------------------
    1      C      -0.5183010000     3.0044060000    -0.2040200000
    2      F       0.7310000000     2.4149490000    -0.0513540000
    3      F      -1.1350540000     3.1070390000     0.7878600000
    4      F      -1.4117510000     0.9631520000     0.6457670000
    5      F      -1.1041650000     2.5333720000    -1.2496600000
 ----------------------------------------------------------------

   10    -435.3159392993      4.44E-09 Convergence criterion met
 Total energy in the final basis set = -435.3159392993
  Term symbol:  2 (-) A                                     R^2 =  7.62213e-13
  Excitation energy:                                             293.037609 eV
  Term symbol:  3 (-) A                                     R^2 =  6.87230e-13
  Excitation energy:                                             294.719830 eV
  Term symbol:  4 (-) A                                     R^2 =  1.21134e-12
  Excitation energy:                                             300.536047 eV
  Term symbol:  5 (-) A                                     R^2 =  4.34033e-12
  Excitation energy:                                             302.629016 eV
  Term symbol:  6 (-) A                                     R^2 =  5.98047e-12
  Excitation energy:                                             302.769065 eV
  Term symbol:  7 (-) A                                     R^2 =  1.17871e-12
  Excitation energy:                                             304.878295 eV
  Term symbol:  8 (-) A                                     R^2 =  1.13519e-12
  Excitation energy:                                             305.886350 eV
  Term symbol:  9 (-) A                                     R^2 =  1.09180e-11
  Excitation energy:                                             307.526778 eV
  Term symbol:  10 (-) A                                    R^2 =  1.09281e-11
  Excitation energy:                                             312.029865 eV
  Excited state 10 (A)                                             [converged]
  Term symbol:  11 (-) A                                    R^2 =  9.80227e-12
  Excitation energy:                                             313.450931 eV
  Excited state 11 (A)                                             [converged]
  Term symbol:  12 (-) A                                    R^2 =  4.57459e-12
  Excitation energy:                                             313.456582 eV
  Excited state 12 (A)                                             [converged]
  Term symbol:  13 (-) A                                    R^2 =  1.25633e-11
  Excitation energy:                                             313.780400 eV
  Excited state 13 (A)                                             [converged]
  Term symbol:  14 (-) A                                    R^2 =  4.53328e-12
  Excitation energy:                                             313.946442 eV
  Excited state 14 (A)                                             [converged]
  Term symbol:  15 (-) A                                    R^2 =  3.66133e-12
  Excitation energy:                                             314.574304 eV
  Excited state 15 (A)                                             [converged]
  Term symbol:  16 (-) A                                    R^2 =  2.94523e-10
  Excitation energy:                                             318.799958 eV
  Excited state 16 (A)                                             [converged]
  Term symbol:  17 (-) A                                    R^2 =  4.65521e-11
  Excitation energy:                                             319.380542 eV
  Excited state 17 (A)                                         [not converged]
  Term symbol:  18 (-) A                                    R^2 =  4.17296e-05
  Excitation energy:                                             323.332632 eV
  Excited state 18 (A)                                             [converged]
  Term symbol:  19 (-) A                                    R^2 =  3.47710e-08
  Excitation energy:                                             323.350479 eV
  Excited state 19 (A)                                         [not converged]
  Term symbol:  20 (-) A                                    R^2 =  1.19536e-04
  Excitation energy:                                             323.914232 eV
  Excited state 20 (A)                                         [not converged]
  Term symbol:  21 (-) A                                    R^2 =  3.26267e-03
  Excitation energy:                                             323.914538 eV

                    Orbital Energies (a.u.)
 --------------------------------------------------------------

 Alpha MOs
 -- Occupied --
-26.557 -26.504 -26.471 -26.001 -11.726  -1.940  -1.813  -1.737
 -1.262  -1.100  -0.993  -0.979  -0.935  -0.832  -0.808  -0.804
 -0.773  -0.768  -0.368  -0.367  -0.346

 Beta MOs
 -- Occupied --
-26.557 -26.504 -26.471 -26.001 -11.726  -1.940  -1.813  -1.737
 -1.262  -1.100  -0.993  -0.979  -0.935  -0.832  -0.808  -0.804
 -0.773  -0.768  -0.368  -0.367  -0.346

          Ground-State Mulliken Net Atomic Charges

     Atom                 Charge (a.u.)    Spin (a.u.)
  --------------------------------------------------------
      1 C                     1.200791       0.000000
      2 F                    -0.247500       0.000000
      3 F                     0.026496       0.000000
      4 F                    -0.821592       0.000000
      5 F                    -0.158195       0.000000
  --------------------------------------------------------
  Sum of atomic charges =     0.000000

                    Cartesian Multipole Moments
 -----------------------------------------------------------------
    Charge (ESU x 10^10)
                 0.0000
    Dipole Moment (Debye)
         X       2.6720      Y       8.2692      Z      -2.8041
       Tot       9.1314
    Quadrupole Moments (Debye-Ang)
        XX     -29.2369     XY      -2.8842     YY      11.4163
        XZ       3.3767     YZ      -3.6097     ZZ     -24.2128

 Total job time:  2007.11s(wall), 3281.33s(cpu)
        *  Thank you very much for using Q-Chem.  Have a nice day.  *
