 Q-Chem 4.3, Q-Chem, Inc., Pleasanton, CA (2015)
 Q-Chem 4.3.0 for Intel X86 Linux

User input:
--------------------------------------------------------------
$comment
XAS calculation for the 2b valence excited for water using cvs-adc(2)-x + 6-311+G* basis set
job 1 - determination of HF orbitals
$end

$molecule
0 1
6  -0.579763  2.668225  -0.156879
9  0.581567  2.325059  0.006012
9  -1.143053  3.255515  0.791098
9  -1.178481  1.076728  0.47996
9  -1.131431  2.538351  -1.185017
$end

$rem
jobtype      sp
sym_ignore true
exchange     hf
basis        6-31G*
unrestricted true
$end

--------------------------------------------------------------

    8    -435.4919820263      7.89E-06 Convergence criterion met
 Total energy in the final basis set = -435.4919820263
 Total job time:  2.09s(wall), 11.21s(cpu)
        *  Thank you very much for using Q-Chem.  Have a nice day.  *
 Q-Chem 4.3, Q-Chem, Inc., Pleasanton, CA (2015)
 Q-Chem 4.3.0 for Intel X86 Linux

User input:
--------------------------------------------------------------

$comment
job3 - cvs-adc(2) calculation
$end

$molecule
read
$end

$rem
mem_total 3000
mem_static 1500
sym_ignore true
scf_guess read
method cvs-adc(2)
basis 6-31G*
ee_singlets 20
cc_rest_occ 5                  !only excitations from the lowest N orbitals
unrestricted  true
max_scf_cycles 200
$end
--------------------------------------------------------------

             Standard Nuclear Orientation (Angstroms)
    I     Atom           X                Y                Z
 ----------------------------------------------------------------
    1      C      -0.5797630000     2.6682250000    -0.1568790000
    2      F       0.5815670000     2.3250590000     0.0060120000
    3      F      -1.1430530000     3.2555150000     0.7910980000
    4      F      -1.1784810000     1.0767280000     0.4799600000
    5      F      -1.1314310000     2.5383510000    -1.1850170000
 ----------------------------------------------------------------

    6    -435.4919822021      9.17E-09 Convergence criterion met
 Total energy in the final basis set = -435.4919822021
  Term symbol:  2 (-) A                                     R^2 =  2.05701e-14
  Excitation energy:                                             295.735314 eV
  Term symbol:  3 (-) A                                     R^2 =  2.21138e-14
  Excitation energy:                                             297.636998 eV
  Term symbol:  4 (-) A                                     R^2 =  6.15092e-14
  Excitation energy:                                             303.686715 eV
  Term symbol:  5 (-) A                                     R^2 =  4.25692e-14
  Excitation energy:                                             304.854211 eV
  Term symbol:  6 (-) A                                     R^2 =  3.96060e-14
  Excitation energy:                                             305.716469 eV
  Term symbol:  7 (-) A                                     R^2 =  3.68408e-14
  Excitation energy:                                             306.646746 eV
  Term symbol:  8 (-) A                                     R^2 =  5.28326e-14
  Excitation energy:                                             307.022740 eV
  Term symbol:  9 (-) A                                     R^2 =  2.06425e-14
  Excitation energy:                                             308.723786 eV
  Term symbol:  10 (-) A                                    R^2 =  6.66486e-14
  Excitation energy:                                             311.775116 eV
  Excited state 10 (A)                                             [converged]
  Term symbol:  11 (-) A                                    R^2 =  5.42930e-14
  Excitation energy:                                             313.363764 eV
  Excited state 11 (A)                                             [converged]
  Term symbol:  12 (-) A                                    R^2 =  6.73221e-14
  Excitation energy:                                             314.213721 eV
  Excited state 12 (A)                                             [converged]
  Term symbol:  13 (-) A                                    R^2 =  7.78696e-14
  Excitation energy:                                             314.449012 eV
  Excited state 13 (A)                                             [converged]
  Term symbol:  14 (-) A                                    R^2 =  9.32413e-14
  Excitation energy:                                             314.559999 eV
  Excited state 14 (A)                                             [converged]
  Term symbol:  15 (-) A                                    R^2 =  1.88710e-13
  Excitation energy:                                             314.918431 eV
  Excited state 15 (A)                                             [converged]
  Term symbol:  16 (-) A                                    R^2 =  9.85386e-13
  Excitation energy:                                             318.245057 eV
  Excited state 16 (A)                                             [converged]
  Term symbol:  17 (-) A                                    R^2 =  5.19574e-13
  Excitation energy:                                             318.682331 eV
  Excited state 17 (A)                                             [converged]
  Term symbol:  18 (-) A                                    R^2 =  6.37067e-09
  Excitation energy:                                             330.813193 eV
  Excited state 18 (A)                                             [converged]
  Term symbol:  19 (-) A                                    R^2 =  2.75477e-09
  Excitation energy:                                             330.989748 eV
  Excited state 19 (A)                                         [not converged]
  Term symbol:  20 (-) A                                    R^2 =  5.06587e-06
  Excitation energy:                                             331.550408 eV
  Excited state 20 (A)                                         [not converged]
  Term symbol:  21 (-) A                                    R^2 =  3.39607e-06
  Excitation energy:                                             331.679891 eV

                    Orbital Energies (a.u.)
 --------------------------------------------------------------

 Alpha MOs
 -- Occupied --
-26.475 -26.451 -26.437 -26.128 -11.659  -1.904  -1.804  -1.765
 -1.393  -1.058  -0.977  -0.969  -0.917  -0.804  -0.800  -0.792
 -0.771  -0.744  -0.483  -0.482  -0.475

 Beta MOs
 -- Occupied --
-26.475 -26.451 -26.437 -26.128 -11.659  -1.904  -1.804  -1.765
 -1.393  -1.058  -0.977  -0.969  -0.917  -0.804  -0.800  -0.792
 -0.771  -0.744  -0.483  -0.482  -0.475

          Ground-State Mulliken Net Atomic Charges

     Atom                 Charge (a.u.)    Spin (a.u.)
  --------------------------------------------------------
      1 C                     1.194070       0.000000
      2 F                    -0.182680       0.000000
      3 F                    -0.215970       0.000000
      4 F                    -0.677164       0.000000
      5 F                    -0.118257       0.000000
  --------------------------------------------------------
  Sum of atomic charges =     0.000000

                    Cartesian Multipole Moments
 -----------------------------------------------------------------
    Charge (ESU x 10^10)
                 0.0000
    Dipole Moment (Debye)
         X       1.6945      Y       4.5423      Z      -2.1898
       Tot       5.3197
    Quadrupole Moments (Debye-Ang)
        XX     -26.4343     XY      -0.4974     YY      -5.8438
        XZ       2.1424     YZ      -4.0161     ZZ     -23.8025

 Total job time:  2017.39s(wall), 3295.88s(cpu)
        *  Thank you very much for using Q-Chem.  Have a nice day.  *
