 Q-Chem 4.3, Q-Chem, Inc., Pleasanton, CA (2015)
 Q-Chem 4.3.0 for Intel X86 Linux

User input:
--------------------------------------------------------------
$comment
XAS calculation for the 2b valence excited for water using cvs-adc(2)-x + 6-311+G* basis set
job 1 - determination of HF orbitals
$end

$molecule
0 1
6  -0.458039  2.972409  -0.221177
9  0.591342  2.410284  -0.03595
9  -1.103453  3.31156  0.737241
9  -1.337758  0.665162  0.656673
9  -1.098721  2.616913  -1.222215
$end

$rem
jobtype      sp
sym_ignore true
exchange     hf
basis        6-31G*
unrestricted true
$end

--------------------------------------------------------------

   10    -435.3566118116      8.28E-06 Convergence criterion met
 Total energy in the final basis set = -435.3566118116
 Total job time:  2.75s(wall), 13.05s(cpu)
        *  Thank you very much for using Q-Chem.  Have a nice day.  *
 Q-Chem 4.3, Q-Chem, Inc., Pleasanton, CA (2015)
 Q-Chem 4.3.0 for Intel X86 Linux

User input:
--------------------------------------------------------------

$comment
job3 - cvs-adc(2) calculation
$end

$molecule
read
$end

$rem
mem_total 3000
mem_static 1500
sym_ignore true
scf_guess read
method cvs-adc(2)
basis 6-31G*
ee_singlets 20
cc_rest_occ 5                  !only excitations from the lowest N orbitals
unrestricted  true
max_scf_cycles 200
$end
--------------------------------------------------------------

             Standard Nuclear Orientation (Angstroms)
    I     Atom           X                Y                Z
 ----------------------------------------------------------------
    1      C      -0.4580390000     2.9724090000    -0.2211770000
    2      F       0.5913420000     2.4102840000    -0.0359500000
    3      F      -1.1034530000     3.3115600000     0.7372410000
    4      F      -1.3377580000     0.6651620000     0.6566730000
    5      F      -1.0987210000     2.6169130000    -1.2222150000
 ----------------------------------------------------------------

    9    -435.3566119931      3.30E-09 Convergence criterion met
 Total energy in the final basis set = -435.3566119931
  Term symbol:  2 (-) A                                     R^2 =  4.19726e-13
  Excitation energy:                                             293.557101 eV
  Term symbol:  3 (-) A                                     R^2 =  2.01487e-13
  Excitation energy:                                             295.387886 eV
  Term symbol:  4 (-) A                                     R^2 =  7.83238e-13
  Excitation energy:                                             304.369761 eV
  Term symbol:  5 (-) A                                     R^2 =  1.08968e-13
  Excitation energy:                                             305.165360 eV
  Term symbol:  6 (-) A                                     R^2 =  1.43999e-13
  Excitation energy:                                             305.751969 eV
  Term symbol:  7 (-) A                                     R^2 =  1.51444e-13
  Excitation energy:                                             306.360265 eV
  Term symbol:  8 (-) A                                     R^2 =  8.18462e-14
  Excitation energy:                                             307.093075 eV
  Term symbol:  9 (-) A                                     R^2 =  1.20140e-12
  Excitation energy:                                             307.806864 eV
  Term symbol:  10 (-) A                                    R^2 =  1.60644e-12
  Excitation energy:                                             312.367181 eV
  Excited state 10 (A)                                             [converged]
  Term symbol:  11 (-) A                                    R^2 =  1.53728e-12
  Excitation energy:                                             313.991618 eV
  Excited state 11 (A)                                             [converged]
  Term symbol:  12 (-) A                                    R^2 =  4.18145e-13
  Excitation energy:                                             314.214706 eV
  Excited state 12 (A)                                             [converged]
  Term symbol:  13 (-) A                                    R^2 =  3.90717e-13
  Excitation energy:                                             314.301455 eV
  Excited state 13 (A)                                             [converged]
  Term symbol:  14 (-) A                                    R^2 =  5.06311e-13
  Excitation energy:                                             314.668815 eV
  Excited state 14 (A)                                             [converged]
  Term symbol:  15 (-) A                                    R^2 =  1.04898e-12
  Excitation energy:                                             314.814043 eV
  Excited state 15 (A)                                             [converged]
  Term symbol:  16 (-) A                                    R^2 =  8.38649e-12
  Excitation energy:                                             318.326814 eV
  Excited state 16 (A)                                             [converged]
  Term symbol:  17 (-) A                                    R^2 =  1.46168e-12
  Excitation energy:                                             318.999551 eV
  Excited state 17 (A)                                             [converged]
  Term symbol:  18 (-) A                                    R^2 =  1.45847e-07
  Excitation energy:                                             332.082195 eV
  Excited state 18 (A)                                             [converged]
  Term symbol:  19 (-) A                                    R^2 =  3.11113e-08
  Excitation energy:                                             332.263498 eV
  Excited state 19 (A)                                         [not converged]
  Term symbol:  20 (-) A                                    R^2 =  4.68708e-05
  Excitation energy:                                             332.334274 eV
  Excited state 20 (A)                                         [not converged]
  Term symbol:  21 (-) A                                    R^2 =  1.01424e-04
  Excitation energy:                                             332.466125 eV

                    Orbital Energies (a.u.)
 --------------------------------------------------------------

 Alpha MOs
 -- Occupied --
-26.547 -26.547 -26.531 -25.945 -11.749  -1.973  -1.871  -1.846
 -1.207  -1.126  -1.044  -1.040  -0.984  -0.873  -0.869  -0.842
 -0.831  -0.817  -0.315  -0.315  -0.313

 Beta MOs
 -- Occupied --
-26.547 -26.547 -26.531 -25.945 -11.749  -1.973  -1.871  -1.846
 -1.207  -1.126  -1.044  -1.040  -0.984  -0.873  -0.869  -0.842
 -0.831  -0.817  -0.315  -0.315  -0.313

          Ground-State Mulliken Net Atomic Charges

     Atom                 Charge (a.u.)    Spin (a.u.)
  --------------------------------------------------------
      1 C                     1.150384       0.000000
      2 F                    -0.070855       0.000000
      3 F                    -0.067209       0.000000
      4 F                    -0.895138       0.000000
      5 F                    -0.117182       0.000000
  --------------------------------------------------------
  Sum of atomic charges =     0.000000

                    Cartesian Multipole Moments
 -----------------------------------------------------------------
    Charge (ESU x 10^10)
                 0.0000
    Dipole Moment (Debye)
         X       3.8675      Y       9.9925      Z      -3.6257
       Tot      11.3117
    Quadrupole Moments (Debye-Ang)
        XX     -29.2935     XY      -1.4770     YY      14.9167
        XZ       3.9058     YZ      -4.6449     ZZ     -24.2334

 Total job time:  2122.73s(wall), 3403.28s(cpu)
        *  Thank you very much for using Q-Chem.  Have a nice day.  *
