 Q-Chem 4.3, Q-Chem, Inc., Pleasanton, CA (2015)
 Q-Chem 4.3.0 for Intel X86 Linux

User input:
--------------------------------------------------------------
$comment
XAS calculation for the 2b valence excited for water using cvs-adc(2)-x + 6-311+G* basis set
job 1 - determination of HF orbitals
$end

$molecule
0 1
6  -0.364025  2.966558  -0.266466
9  0.712197  2.544357  -0.105486
9  -1.130488  3.105238  0.791486
9  -1.540711  0.805314  0.752359
9  -1.061674  2.597604  -1.267698
$end

$rem
jobtype      sp
sym_ignore true
exchange     hf
basis        6-31G*
unrestricted true
$end

--------------------------------------------------------------

   12    -435.3231136506      9.14E-06 Convergence criterion met
 Total energy in the final basis set = -435.3231136506

                    Orbital Energies (a.u.)
 --------------------------------------------------------------

 Alpha MOs
 -- Occupied --
-26.583 -26.523 -26.497 -25.959 -11.745  -1.980  -1.847  -1.779
 -1.217  -1.131  -1.028  -1.014  -0.979  -0.858  -0.843  -0.839
 -0.791  -0.786  -0.326  -0.325  -0.312

 Beta MOs
 -- Occupied --
-26.583 -26.523 -26.497 -25.959 -11.745  -1.980  -1.847  -1.779
 -1.217  -1.131  -1.028  -1.014  -0.979  -0.858  -0.843  -0.839
 -0.791  -0.786  -0.326  -0.325  -0.312

          Ground-State Mulliken Net Atomic Charges

     Atom                 Charge (a.u.)    Spin (a.u.)
  --------------------------------------------------------
      1 C                     1.167110       0.000000
      2 F                    -0.025550       0.000000
      3 F                    -0.132153       0.000000
      4 F                    -0.866630       0.000000
      5 F                    -0.142777       0.000000
  --------------------------------------------------------
  Sum of atomic charges =     0.000000

                    Cartesian Multipole Moments
 -----------------------------------------------------------------
    Charge (ESU x 10^10)
                 0.0000
    Dipole Moment (Debye)
         X       5.2847      Y       8.8518      Z      -4.1690
       Tot      11.1203
    Quadrupole Moments (Debye-Ang)
        XX     -31.8804     XY       2.2686     YY      11.3021
        XZ       4.9062     YZ      -6.0755     ZZ     -24.8993

 Total job time:  3.33s(wall), 14.20s(cpu)
        *  Thank you very much for using Q-Chem.  Have a nice day.  *
 Q-Chem 4.3, Q-Chem, Inc., Pleasanton, CA (2015)
 Q-Chem 4.3.0 for Intel X86 Linux

User input:
--------------------------------------------------------------

$comment
job3 - cvs-adc(2) calculation
$end

$molecule
read
$end

$rem
mem_total 3000
mem_static 1500
sym_ignore true
scf_guess read
method cvs-adc(2)
basis 6-31G*
ee_singlets 20
cc_rest_occ 5                  !only excitations from the lowest N orbitals
unrestricted  true
max_scf_cycles 200
$end
--------------------------------------------------------------

             Standard Nuclear Orientation (Angstroms)
    I     Atom           X                Y                Z
 ----------------------------------------------------------------
    1      C      -0.3640250000     2.9665580000    -0.2664660000
    2      F       0.7121970000     2.5443570000    -0.1054860000
    3      F      -1.1304880000     3.1052380000     0.7914860000
    4      F      -1.5407110000     0.8053140000     0.7523590000
    5      F      -1.0616740000     2.5976040000    -1.2676980000
 ----------------------------------------------------------------

   11    -435.3231151637      4.83E-09 Convergence criterion met
 Total energy in the final basis set = -435.3231151637
