 Q-Chem 4.3, Q-Chem, Inc., Pleasanton, CA (2015)
 Q-Chem 4.3.0 for Intel X86 Linux

User input:
--------------------------------------------------------------
$comment
XAS calculation for the 2b valence excited for water using cvs-adc(2)-x + 6-311+G* basis set
job 1 - determination of HF orbitals
$end

$molecule
0 1
6  -0.485519  3.107253  -0.265901
9  0.627027  2.601498  -0.095722
9  -1.031708  3.568006  0.636482
9  -1.527264  -0.124095  0.921628
9  -1.025868  2.885105  -1.285814
$end

$rem
jobtype      sp
sym_ignore true
exchange     hf
basis        6-31G*
unrestricted true
$end

--------------------------------------------------------------

   12    -435.2998747025      2.14E-06 Convergence criterion met
 Total energy in the final basis set = -435.2998747025
 Total job time:  3.12s(wall), 13.32s(cpu)
        *  Thank you very much for using Q-Chem.  Have a nice day.  *
 Q-Chem 4.3, Q-Chem, Inc., Pleasanton, CA (2015)
 Q-Chem 4.3.0 for Intel X86 Linux

User input:
--------------------------------------------------------------

$comment
job3 - cvs-adc(2) calculation
$end

$molecule
read
$end

$rem
mem_total 3000
mem_static 1500
sym_ignore true
scf_guess read
method cvs-adc(2)
basis 6-31G*
ee_singlets 20
cc_rest_occ 5                  !only excitations from the lowest N orbitals
unrestricted  true
max_scf_cycles 200
$end
--------------------------------------------------------------

             Standard Nuclear Orientation (Angstroms)
    I     Atom           X                Y                Z
 ----------------------------------------------------------------
    1      C      -0.4855190000     3.1072530000    -0.2659010000
    2      F       0.6270270000     2.6014980000    -0.0957220000
    3      F      -1.0317080000     3.5680060000     0.6364820000
    4      F      -1.5272640000    -0.1240950000     0.9216280000
    5      F      -1.0258680000     2.8851050000    -1.2858140000
 ----------------------------------------------------------------

    7    -435.2998747602      4.24E-09 Convergence criterion met
 Total energy in the final basis set = -435.2998747602
  Term symbol:  2 (-) A                                     R^2 =  3.24410e-13
  Excitation energy:                                             294.698894 eV
  Term symbol:  3 (-) A                                     R^2 =  1.94567e-13
  Excitation energy:                                             296.596936 eV
  Term symbol:  4 (-) A                                     R^2 =  6.91120e-14
  Excitation energy:                                             303.800648 eV
  Term symbol:  5 (-) A                                     R^2 =  1.65398e-13
  Excitation energy:                                             305.293419 eV
  Term symbol:  6 (-) A                                     R^2 =  6.98342e-14
  Excitation energy:                                             305.933935 eV
  Term symbol:  7 (-) A                                     R^2 =  3.00414e-14
  Excitation energy:                                             307.877037 eV
  Term symbol:  8 (-) A                                     R^2 =  1.80812e-13
  Excitation energy:                                             307.999468 eV
  Term symbol:  9 (-) A                                     R^2 =  5.65315e-14
  Excitation energy:                                             309.978164 eV
  Term symbol:  10 (-) A                                    R^2 =  2.49968e-13
  Excitation energy:                                             312.899608 eV
  Excited state 10 (A)                                             [converged]
  Term symbol:  11 (-) A                                    R^2 =  3.50795e-13
  Excitation energy:                                             314.163385 eV
  Excited state 11 (A)                                             [converged]
  Term symbol:  12 (-) A                                    R^2 =  3.48804e-13
  Excitation energy:                                             314.478714 eV
  Excited state 12 (A)                                             [converged]
  Term symbol:  13 (-) A                                    R^2 =  1.09481e-13
  Excitation energy:                                             314.796543 eV
  Excited state 13 (A)                                             [converged]
  Term symbol:  14 (-) A                                    R^2 =  2.28524e-13
  Excitation energy:                                             314.891342 eV
  Excited state 14 (A)                                             [converged]
  Term symbol:  15 (-) A                                    R^2 =  2.48523e-13
  Excitation energy:                                             314.984050 eV
  Excited state 15 (A)                                             [converged]
  Term symbol:  16 (-) A                                    R^2 =  3.40924e-13
  Excitation energy:                                             315.293526 eV
  Excited state 16 (A)                                             [converged]
  Term symbol:  17 (-) A                                    R^2 =  8.20318e-13
  Excitation energy:                                             316.318917 eV
  Excited state 17 (A)                                         [not converged]
  Term symbol:  18 (-) A                                    R^2 =  6.73332e-01
  Excitation energy:                                             330.612170 eV
  Excited state 18 (A)                                         [not converged]
  Term symbol:  19 (-) A                                    R^2 =  1.33595e-04
  Excitation energy:                                             331.459293 eV
  Excited state 19 (A)                                         [not converged]
  Term symbol:  20 (-) A                                    R^2 =  3.34314e-04
  Excitation energy:                                             331.462007 eV
  Excited state 20 (A)                                         [not converged]
  Term symbol:  21 (-) A                                    R^2 =  7.04400e-05
  Excitation energy:                                             331.481249 eV

                    Orbital Energies (a.u.)
 --------------------------------------------------------------

 Alpha MOs
 -- Occupied --
-26.622 -26.609 -26.577 -25.865 -11.796  -2.066  -1.966  -1.906
 -1.192  -1.130  -1.124  -1.112  -1.069  -0.942  -0.933  -0.922
 -0.889  -0.874  -0.241  -0.241  -0.238

 Beta MOs
 -- Occupied --
-26.622 -26.609 -26.577 -25.865 -11.796  -2.066  -1.966  -1.906
 -1.192  -1.130  -1.124  -1.112  -1.069  -0.942  -0.933  -0.922
 -0.889  -0.874  -0.241  -0.241  -0.238

          Ground-State Mulliken Net Atomic Charges

     Atom                 Charge (a.u.)    Spin (a.u.)
  --------------------------------------------------------
      1 C                     1.141325       0.000000
      2 F                    -0.116644       0.000000
      3 F                    -0.009678       0.000000
      4 F                    -0.969065       0.000000
      5 F                    -0.045938       0.000000
  --------------------------------------------------------
  Sum of atomic charges =     0.000000

                    Cartesian Multipole Moments
 -----------------------------------------------------------------
    Charge (ESU x 10^10)
                 0.0000
    Dipole Moment (Debye)
         X       4.4931      Y      14.9827      Z      -5.3878
       Tot      16.5438
    Quadrupole Moments (Debye-Ang)
        XX     -31.6511     XY      -8.5590     YY      23.4214
        XZ       6.9687     YZ      -3.1818     ZZ     -25.6109

 Total job time:  1937.76s(wall), 3166.64s(cpu)
        *  Thank you very much for using Q-Chem.  Have a nice day.  *
