 Q-Chem 4.3, Q-Chem, Inc., Pleasanton, CA (2015)
 Q-Chem 4.3.0 for Intel X86 Linux

User input:
--------------------------------------------------------------
$comment
XAS calculation for the 2b valence excited for water using cvs-adc(2)-x + 6-311+G* basis set
job 1 - determination of HF orbitals
$end

$molecule
0 1
6  -0.418045  3.086645  -0.341732
9  0.686398  2.634787  -0.121033
9  -1.029006  3.515314  0.666631
9  -1.631879  -0.082244  0.974965
9  -0.997037  2.866582  -1.30262
$end

$rem
jobtype      sp
sym_ignore true
exchange     hf
basis        6-31G*
unrestricted true
$end

--------------------------------------------------------------

   12    -435.2944527500      4.32E-06 Convergence criterion met
 Total energy in the final basis set = -435.2944527500
 Total job time:  3.04s(wall), 12.68s(cpu)
        *  Thank you very much for using Q-Chem.  Have a nice day.  *
 Q-Chem 4.3, Q-Chem, Inc., Pleasanton, CA (2015)
 Q-Chem 4.3.0 for Intel X86 Linux

User input:
--------------------------------------------------------------

$comment
job3 - cvs-adc(2) calculation
$end

$molecule
read
$end

$rem
mem_total 3000
mem_static 1500
sym_ignore true
scf_guess read
method cvs-adc(2)
basis 6-31G*
ee_singlets 20
cc_rest_occ 5                  !only excitations from the lowest N orbitals
unrestricted  true
max_scf_cycles 200
$end
--------------------------------------------------------------

             Standard Nuclear Orientation (Angstroms)
    I     Atom           X                Y                Z
 ----------------------------------------------------------------
    1      C      -0.4180450000     3.0866450000    -0.3417320000
    2      F       0.6863980000     2.6347870000    -0.1210330000
    3      F      -1.0290060000     3.5153140000     0.6666310000
    4      F      -1.6318790000    -0.0822440000     0.9749650000
    5      F      -0.9970370000     2.8665820000    -1.3026200000
 ----------------------------------------------------------------

    8    -435.2944530827      5.13E-09 Convergence criterion met
 Total energy in the final basis set = -435.2944530827
  Term symbol:  2 (-) A                                     R^2 =  2.44465e-05
  Excitation energy:                                             294.425072 eV
  Term symbol:  3 (-) A                                     R^2 =  2.63095e-06
  Excitation energy:                                             296.305250 eV
  Term symbol:  4 (-) A                                     R^2 =  5.88583e-06
  Excitation energy:                                             303.409017 eV
  Term symbol:  5 (-) A                                     R^2 =  1.76031e-06
  Excitation energy:                                             304.956240 eV
  Term symbol:  6 (-) A                                     R^2 =  7.85298e-06
  Excitation energy:                                             305.077690 eV
  Term symbol:  7 (-) A                                     R^2 =  2.45465e-06
  Excitation energy:                                             307.050960 eV
  Term symbol:  8 (-) A                                     R^2 =  5.85296e-06
  Excitation energy:                                             307.659561 eV
  Term symbol:  9 (-) A                                     R^2 =  8.49117e-07
  Excitation energy:                                             309.612409 eV
  Term symbol:  10 (-) A                                    R^2 =  1.76844e-05
  Excitation energy:                                             312.961548 eV
  Excited state 10 (A)                                         [not converged]
  Term symbol:  11 (-) A                                    R^2 =  2.71085e-05
  Excitation energy:                                             314.212323 eV
  Excited state 11 (A)                                         [not converged]
  Term symbol:  12 (-) A                                    R^2 =  1.69870e-06
  Excitation energy:                                             314.488547 eV
  Excited state 12 (A)                                         [not converged]
  Term symbol:  13 (-) A                                    R^2 =  2.09388e-06
  Excitation energy:                                             314.814112 eV
  Excited state 13 (A)                                             [converged]
  Term symbol:  14 (-) A                                    R^2 =  8.62781e-07
  Excitation energy:                                             314.863909 eV
  Excited state 14 (A)                                         [not converged]
  Term symbol:  15 (-) A                                    R^2 =  2.12574e-05
  Excitation energy:                                             315.114092 eV
  Excited state 15 (A)                                         [not converged]
  Term symbol:  16 (-) A                                    R^2 =  2.01095e-06
  Excitation energy:                                             315.404528 eV
  Excited state 16 (A)                                             [converged]
  Term symbol:  17 (-) A                                    R^2 =  7.70399e-07
  Excitation energy:                                             316.327912 eV
  Excited state 17 (A)                                         [not converged]
  Term symbol:  18 (-) A                                    R^2 =  3.71804e-02
  Excitation energy:                                             324.383887 eV
  Excited state 18 (A)                                         [not converged]
  Term symbol:  19 (-) A                                    R^2 =  1.61087e-01
  Excitation energy:                                             324.591522 eV
  Excited state 19 (A)                                         [not converged]
  Term symbol:  20 (-) A                                    R^2 =  2.64172e-01
  Excitation energy:                                             325.127136 eV
  Excited state 20 (A)                                         [not converged]
  Term symbol:  21 (-) A                                    R^2 =  9.78409e-04
  Excitation energy:                                             331.022095 eV

                    Orbital Energies (a.u.)
 --------------------------------------------------------------

 Alpha MOs
 -- Occupied --
-26.636 -26.598 -26.575 -25.864 -11.802  -2.063  -1.950  -1.890
 -1.194  -1.129  -1.115  -1.105  -1.063  -0.937  -0.927  -0.918
 -0.883  -0.870  -0.240  -0.240  -0.236

 Beta MOs
 -- Occupied --
-26.636 -26.598 -26.575 -25.864 -11.802  -2.063  -1.950  -1.890
 -1.194  -1.129  -1.115  -1.105  -1.063  -0.937  -0.927  -0.918
 -0.883  -0.870  -0.240  -0.240  -0.236

          Ground-State Mulliken Net Atomic Charges

     Atom                 Charge (a.u.)    Spin (a.u.)
  --------------------------------------------------------
      1 C                     1.176414       0.000000
      2 F                    -0.086071       0.000000
      3 F                    -0.132242       0.000000
      4 F                    -0.967116       0.000000
      5 F                     0.009014       0.000000
  --------------------------------------------------------
  Sum of atomic charges =     0.000000

                    Cartesian Multipole Moments
 -----------------------------------------------------------------
    Charge (ESU x 10^10)
                 0.0000
    Dipole Moment (Debye)
         X       5.5024      Y      14.4291      Z      -6.4747
       Tot      16.7450
    Quadrupole Moments (Debye-Ang)
        XX     -33.5869     XY      -6.4248     YY      21.1850
        XZ       8.3165     YZ      -6.0115     ZZ     -25.6494

 Total job time:  1956.36s(wall), 3170.38s(cpu)
        *  Thank you very much for using Q-Chem.  Have a nice day.  *
