 Q-Chem 4.3, Q-Chem, Inc., Pleasanton, CA (2015)
 Q-Chem 4.3.0 for Intel X86 Linux

User input:
--------------------------------------------------------------
$comment
XAS calculation for the 2b valence excited for water using cvs-adc(2)-x + 6-311+G* basis set
job 1 - determination of HF orbitals
$end

$molecule
0 1
6  -0.622262  2.539759  -0.066858
9  0.592339  2.335697  0.001568
9  -1.137699  3.261695  0.783529
9  -1.16153  1.132043  0.457211
9  -1.137968  2.546943  -1.210009
$end

$rem
jobtype      sp
sym_ignore true
exchange     hf
basis        6-31G*
unrestricted true
$end

--------------------------------------------------------------

    8    -435.5785813132      7.46E-06 Convergence criterion met
 Total energy in the final basis set = -435.5785813132
 Total job time:  128.76s(wall), 10.92s(cpu)
        *  Thank you very much for using Q-Chem.  Have a nice day.  *
 Q-Chem 4.3, Q-Chem, Inc., Pleasanton, CA (2015)
 Q-Chem 4.3.0 for Intel X86 Linux

User input:
--------------------------------------------------------------

$comment
job3 - cvs-adc(2) calculation
$end

$molecule
read
$end

$rem
mem_total 3000
mem_static 1500
sym_ignore true
scf_guess read
method cvs-adc(2)
basis 6-31G*
ee_singlets 20
cc_rest_occ 5                  !only excitations from the lowest N orbitals
unrestricted  true
max_scf_cycles 200
$end
--------------------------------------------------------------

             Standard Nuclear Orientation (Angstroms)
    I     Atom           X                Y                Z
 ----------------------------------------------------------------
    1      C      -0.6222620000     2.5397590000    -0.0668580000
    2      F       0.5923390000     2.3356970000     0.0015680000
    3      F      -1.1376990000     3.2616950000     0.7835290000
    4      F      -1.1615300000     1.1320430000     0.4572110000
    5      F      -1.1379680000     2.5469430000    -1.2100090000
 ----------------------------------------------------------------

    6    -435.5785814314      5.96E-09 Convergence criterion met
 Total energy in the final basis set = -435.5785814314
  Term symbol:  2 (-) A                                     R^2 =  5.17021e-14
  Excitation energy:                                             297.332868 eV
  Term symbol:  3 (-) A                                     R^2 =  5.03477e-14
  Excitation energy:                                             299.358573 eV
  Term symbol:  4 (-) A                                     R^2 =  7.27512e-14
  Excitation energy:                                             303.626038 eV
  Term symbol:  5 (-) A                                     R^2 =  3.41977e-14
  Excitation energy:                                             304.203317 eV
  Term symbol:  6 (-) A                                     R^2 =  4.41910e-14
  Excitation energy:                                             304.546141 eV
  Term symbol:  7 (-) A                                     R^2 =  9.51515e-14
  Excitation energy:                                             305.841166 eV
  Term symbol:  8 (-) A                                     R^2 =  6.22747e-14
  Excitation energy:                                             306.347951 eV
  Term symbol:  9 (-) A                                     R^2 =  2.94294e-14
  Excitation energy:                                             306.734619 eV
  Term symbol:  10 (-) A                                    R^2 =  5.04572e-14
  Excitation energy:                                             311.887699 eV
  Excited state 10 (A)                                             [converged]
  Term symbol:  11 (-) A                                    R^2 =  5.15682e-14
  Excitation energy:                                             313.119504 eV
  Excited state 11 (A)                                             [converged]
  Term symbol:  12 (-) A                                    R^2 =  7.46079e-14
  Excitation energy:                                             314.048302 eV
  Excited state 12 (A)                                             [converged]
  Term symbol:  13 (-) A                                    R^2 =  6.64058e-14
  Excitation energy:                                             314.091819 eV
  Excited state 13 (A)                                             [converged]
  Term symbol:  14 (-) A                                    R^2 =  1.14377e-13
  Excitation energy:                                             314.424076 eV
  Excited state 14 (A)                                             [converged]
  Term symbol:  15 (-) A                                    R^2 =  1.06384e-13
  Excitation energy:                                             314.494674 eV
  Excited state 15 (A)                                             [converged]
  Term symbol:  16 (-) A                                    R^2 =  5.56808e-13
  Excitation energy:                                             316.165682 eV
  Excited state 16 (A)                                             [converged]
  Term symbol:  17 (-) A                                    R^2 =  2.61584e-12
  Excitation energy:                                             316.580023 eV
  Excited state 17 (A)                                         [not converged]
  Term symbol:  18 (-) A                                    R^2 =  4.60416e-04
  Excitation energy:                                             330.929093 eV
  Excited state 18 (A)                                         [not converged]
  Term symbol:  19 (-) A                                    R^2 =  2.05708e-05
  Excitation energy:                                             330.960718 eV
  Excited state 19 (A)                                         [not converged]
  Term symbol:  20 (-) A                                    R^2 =  2.28512e-03
  Excitation energy:                                             330.973646 eV
  Excited state 20 (A)                                         [not converged]
  Term symbol:  21 (-) A                                    R^2 =  1.16933e-04
  Excitation energy:                                             331.028003 eV

                    Orbital Energies (a.u.)
 --------------------------------------------------------------

 Alpha MOs
 -- Occupied --
-26.422 -26.421 -26.413 -26.241 -11.626  -1.855  -1.753  -1.739
 -1.507  -1.028  -0.935  -0.932  -0.887  -0.780  -0.777  -0.754
 -0.748  -0.717  -0.581  -0.579  -0.579

 Beta MOs
 -- Occupied --
-26.422 -26.421 -26.413 -26.241 -11.626  -1.855  -1.753  -1.739
 -1.507  -1.028  -0.935  -0.932  -0.887  -0.780  -0.777  -0.754
 -0.748  -0.717  -0.581  -0.579  -0.579

          Ground-State Mulliken Net Atomic Charges

     Atom                 Charge (a.u.)    Spin (a.u.)
  --------------------------------------------------------
      1 C                     1.258756       0.000000
      2 F                    -0.232060       0.000000
      3 F                    -0.226485       0.000000
      4 F                    -0.543488       0.000000
      5 F                    -0.256724       0.000000
  --------------------------------------------------------
  Sum of atomic charges =     0.000000

                    Cartesian Multipole Moments
 -----------------------------------------------------------------
    Charge (ESU x 10^10)
                 0.0000
    Dipole Moment (Debye)
         X       1.0203      Y       2.5558      Z      -0.8431
       Tot       2.8782
    Quadrupole Moments (Debye-Ang)
        XX     -25.8029     XY      -0.1239     YY     -14.0175
        XZ       0.8295     YZ      -1.2075     ZZ     -24.4772

 Total job time:  2114.28s(wall), 3421.95s(cpu)
        *  Thank you very much for using Q-Chem.  Have a nice day.  *
