 Q-Chem 4.3, Q-Chem, Inc., Pleasanton, CA (2015)
 Q-Chem 4.3.0 for Intel X86 Linux

User input:
--------------------------------------------------------------
$comment
XAS calculation for the 2b valence excited for water using cvs-adc(2)-x + 6-311+G* basis set
job 1 - determination of HF orbitals
$end

$molecule
0 1
6  -0.538009  2.981586  -0.197815
9  0.726914  2.401358  -0.044304
9  -1.135443  3.113245  0.787575
9  -1.390873  0.986941  0.628488
9  -1.10745  2.52934  -1.242983
$end

$rem
jobtype      sp
sym_ignore true
exchange     hf
basis        6-31G*
unrestricted true
$end

--------------------------------------------------------------

   12    -435.3224380583      5.47E-06 Convergence criterion met
 Total energy in the final basis set = -435.3224380583
 Total job time:  3.19s(wall), 13.31s(cpu)
        *  Thank you very much for using Q-Chem.  Have a nice day.  *
 Q-Chem 4.3, Q-Chem, Inc., Pleasanton, CA (2015)
 Q-Chem 4.3.0 for Intel X86 Linux

User input:
--------------------------------------------------------------

$comment
job3 - cvs-adc(2) calculation
$end

$molecule
read
$end

$rem
mem_total 3000
mem_static 1500
sym_ignore true
scf_guess read
method cvs-adc(2)
basis 6-31G*
ee_singlets 20
cc_rest_occ 5                  !only excitations from the lowest N orbitals
unrestricted  true
max_scf_cycles 200
$end
--------------------------------------------------------------

             Standard Nuclear Orientation (Angstroms)
    I     Atom           X                Y                Z
 ----------------------------------------------------------------
    1      C      -0.5380090000     2.9815860000    -0.1978150000
    2      F       0.7269140000     2.4013580000    -0.0443040000
    3      F      -1.1354430000     3.1132450000     0.7875750000
    4      F      -1.3908730000     0.9869410000     0.6284880000
    5      F      -1.1074500000     2.5293400000    -1.2429830000
 ----------------------------------------------------------------

   10    -435.3224384612      4.34E-09 Convergence criterion met
 Total energy in the final basis set = -435.3224384612
  Term symbol:  2 (-) A                                     R^2 =  1.91581e-09
  Excitation energy:                                             293.074576 eV
  Term symbol:  3 (-) A                                     R^2 =  1.06752e-08
  Excitation energy:                                             294.809747 eV
  Term symbol:  4 (-) A                                     R^2 =  6.30491e-10
  Excitation energy:                                             300.556622 eV
  Term symbol:  5 (-) A                                     R^2 =  6.17725e-10
  Excitation energy:                                             302.676971 eV
  Term symbol:  6 (-) A                                     R^2 =  1.10497e-09
  Excitation energy:                                             303.281876 eV
  Term symbol:  7 (-) A                                     R^2 =  2.00011e-09
  Excitation energy:                                             305.379834 eV
  Term symbol:  8 (-) A                                     R^2 =  9.58981e-10
  Excitation energy:                                             306.508524 eV
  Term symbol:  9 (-) A                                     R^2 =  3.18320e-09
  Excitation energy:                                             308.100672 eV
  Term symbol:  10 (-) A                                    R^2 =  1.06970e-08
  Excitation energy:                                             312.175774 eV
  Excited state 10 (A)                                             [converged]
  Term symbol:  11 (-) A                                    R^2 =  5.12460e-09
  Excitation energy:                                             313.604003 eV
  Excited state 11 (A)                                             [converged]
  Term symbol:  12 (-) A                                    R^2 =  1.00257e-09
  Excitation energy:                                             313.754395 eV
  Excited state 12 (A)                                             [converged]
  Term symbol:  13 (-) A                                    R^2 =  1.56542e-09
  Excitation energy:                                             314.116663 eV
  Excited state 13 (A)                                             [converged]
  Term symbol:  14 (-) A                                    R^2 =  1.13624e-09
  Excitation energy:                                             314.226443 eV
  Excited state 14 (A)                                             [converged]
  Term symbol:  15 (-) A                                    R^2 =  1.13411e-09
  Excitation energy:                                             314.946932 eV
  Excited state 15 (A)                                             [converged]
  Term symbol:  16 (-) A                                    R^2 =  5.42775e-09
  Excitation energy:                                             319.538007 eV
  Excited state 16 (A)                                             [converged]
  Term symbol:  17 (-) A                                    R^2 =  3.67074e-09
  Excitation energy:                                             320.123562 eV
  Excited state 17 (A)                                         [not converged]
  Term symbol:  18 (-) A                                    R^2 =  6.46475e-03
  Excitation energy:                                             324.143848 eV
  Excited state 18 (A)                                         [not converged]
  Term symbol:  19 (-) A                                    R^2 =  7.74530e-02
  Excitation energy:                                             324.205950 eV
  Excited state 19 (A)                                         [not converged]
  Term symbol:  20 (-) A                                    R^2 =  1.53891e-03
  Excitation energy:                                             324.485330 eV
  Excited state 20 (A)                                         [not converged]
  Term symbol:  21 (-) A                                    R^2 =  8.49830e-03
  Excitation energy:                                             324.486138 eV

                    Orbital Energies (a.u.)
 --------------------------------------------------------------

 Alpha MOs
 -- Occupied --
-26.558 -26.509 -26.467 -25.991 -11.730  -1.951  -1.824  -1.731
 -1.257  -1.104  -1.002  -0.983  -0.942  -0.836  -0.814  -0.800
 -0.770  -0.766  -0.361  -0.361  -0.348

 Beta MOs
 -- Occupied --
-26.558 -26.509 -26.467 -25.991 -11.730  -1.951  -1.824  -1.731
 -1.257  -1.104  -1.002  -0.983  -0.942  -0.836  -0.814  -0.800
 -0.770  -0.766  -0.361  -0.361  -0.348

          Ground-State Mulliken Net Atomic Charges

     Atom                 Charge (a.u.)    Spin (a.u.)
  --------------------------------------------------------
      1 C                     1.203715       0.000000
      2 F                    -0.253484       0.000000
      3 F                     0.039465       0.000000
      4 F                    -0.844936       0.000000
      5 F                    -0.144760       0.000000
  --------------------------------------------------------
  Sum of atomic charges =     0.000000

                    Cartesian Multipole Moments
 -----------------------------------------------------------------
    Charge (ESU x 10^10)
                 0.0000
    Dipole Moment (Debye)
         X       2.5329      Y       8.3512      Z      -2.8337
       Tot       9.1754
    Quadrupole Moments (Debye-Ang)
        XX     -29.0135     XY      -3.2705     YY      11.8170
        XZ       3.3743     YZ      -3.7283     ZZ     -24.0591

 Total job time:  2065.35s(wall), 3386.27s(cpu)
        *  Thank you very much for using Q-Chem.  Have a nice day.  *
