 Q-Chem 4.3, Q-Chem, Inc., Pleasanton, CA (2015)
 Q-Chem 4.3.0 for Intel X86 Linux

User input:
--------------------------------------------------------------
$comment
XAS calculation for the 2b valence excited for water using cvs-adc(2)-x + 6-311+G* basis set
job 1 - determination of HF orbitals
$end

$molecule
0 1
6  -0.693056  2.467541  -0.033958
9  0.587974  2.333655  0.007219
9  -1.133208  3.288533  0.783088
9  -1.134592  1.157494  0.433963
9  -1.133453  2.551673  -1.195381
$end

$rem
jobtype      sp
sym_ignore true
exchange     hf
basis        6-31G*
unrestricted true
$end

--------------------------------------------------------------

    8    -435.6187723371      4.65E-06 Convergence criterion met
 Total energy in the final basis set = -435.6187723371
 Total job time:  2.06s(wall), 6.61s(cpu)
        *  Thank you very much for using Q-Chem.  Have a nice day.  *
 Q-Chem 4.3, Q-Chem, Inc., Pleasanton, CA (2015)
 Q-Chem 4.3.0 for Intel X86 Linux

User input:
--------------------------------------------------------------

$comment
job3 - cvs-adc(2) calculation
$end

$molecule
read
$end

$rem
mem_total 3000
mem_static 1500
sym_ignore true
scf_guess read
method cvs-adc(2)
basis 6-31G*
ee_singlets 20
cc_rest_occ 1                  !only excitations from the lowest N orbitals
unrestricted  true
max_scf_cycles 200
$end
--------------------------------------------------------------

             Standard Nuclear Orientation (Angstroms)
    I     Atom           X                Y                Z
 ----------------------------------------------------------------
    1      C      -0.6930560000     2.4675410000    -0.0339580000
    2      F       0.5879740000     2.3336550000     0.0072190000
    3      F      -1.1332080000     3.2885330000     0.7830880000
    4      F      -1.1345920000     1.1574940000     0.4339630000
    5      F      -1.1334530000     2.5516730000    -1.1953810000
 ----------------------------------------------------------------

    5    -435.6187723683      9.27E-09 Convergence criterion met
 Total energy in the final basis set = -435.6187723683
  Term symbol:  2 (-) A                                     R^2 =  3.34884e-13
  Excitation energy:                                             696.508981 eV
  Term symbol:  3 (-) A                                     R^2 =  1.43881e-13
  Excitation energy:                                             696.727231 eV
  Term symbol:  4 (-) A                                     R^2 =  1.14159e-12
  Excitation energy:                                             697.457199 eV
  Term symbol:  5 (-) A                                     R^2 =  8.27666e-13
  Excitation energy:                                             698.568314 eV
  Term symbol:  6 (-) A                                     R^2 =  1.55818e-12
  Excitation energy:                                             700.204366 eV
  Term symbol:  7 (-) A                                     R^2 =  4.49078e-13
  Excitation energy:                                             700.363208 eV
  Term symbol:  8 (-) A                                     R^2 =  3.59627e-13
  Excitation energy:                                             701.546427 eV
  Term symbol:  9 (-) A                                     R^2 =  3.15631e-13
  Excitation energy:                                             701.696779 eV
  Term symbol:  10 (-) A                                    R^2 =  6.47516e-13
  Excitation energy:                                             704.970542 eV
  Excited state 10 (A)                                             [converged]
  Term symbol:  11 (-) A                                    R^2 =  1.26808e-12
  Excitation energy:                                             705.367181 eV
  Excited state 11 (A)                                             [converged]
  Term symbol:  12 (-) A                                    R^2 =  1.56465e-12
  Excitation energy:                                             706.456899 eV
  Excited state 12 (A)                                             [converged]
  Term symbol:  13 (-) A                                    R^2 =  5.08080e-13
  Excitation energy:                                             706.564184 eV
  Excited state 13 (A)                                             [converged]
  Term symbol:  14 (-) A                                    R^2 =  1.00752e-12
  Excitation energy:                                             706.925887 eV
  Excited state 14 (A)                                             [converged]
  Term symbol:  15 (-) A                                    R^2 =  1.57269e-12
  Excitation energy:                                             707.005003 eV
  Excited state 15 (A)                                             [converged]
  Term symbol:  16 (-) A                                    R^2 =  9.26858e-13
  Excitation energy:                                             708.519345 eV
  Excited state 16 (A)                                             [converged]
  Term symbol:  17 (-) A                                    R^2 =  7.95481e-13
  Excitation energy:                                             708.534610 eV
  Excited state 17 (A)                                             [converged]
  Term symbol:  18 (-) A                                    R^2 =  8.25687e-10
  Excitation energy:                                             719.477904 eV
  Excited state 18 (A)                                             [converged]
  Term symbol:  19 (-) A                                    R^2 =  5.84861e-08
  Excitation energy:                                             720.634784 eV
  Excited state 19 (A)                                             [converged]
  Term symbol:  20 (-) A                                    R^2 =  9.81617e-08
  Excitation energy:                                             720.911476 eV
  Excited state 20 (A)                                         [not converged]
  Term symbol:  21 (-) A                                    R^2 =  6.99292e-06
  Excitation energy:                                             721.367708 eV

                    Orbital Energies (a.u.)
 --------------------------------------------------------------

 Alpha MOs
 -- Occupied --
-26.409 -26.403 -26.381 -26.303 -11.610  -1.838  -1.734  -1.701
 -1.583  -1.016  -0.917  -0.908  -0.882  -0.770  -0.764  -0.736
 -0.721  -0.694  -0.647  -0.633  -0.629

 Beta MOs
 -- Occupied --
-26.409 -26.403 -26.381 -26.303 -11.610  -1.838  -1.734  -1.701
 -1.583  -1.016  -0.917  -0.908  -0.882  -0.770  -0.764  -0.736
 -0.721  -0.694  -0.647  -0.633  -0.629

          Ground-State Mulliken Net Atomic Charges

     Atom                 Charge (a.u.)    Spin (a.u.)
  --------------------------------------------------------
      1 C                     1.283945       0.000000
      2 F                    -0.311184       0.000000
      3 F                    -0.252284       0.000000
      4 F                    -0.460248       0.000000
      5 F                    -0.260229       0.000000
  --------------------------------------------------------
  Sum of atomic charges =     0.000000

                    Cartesian Multipole Moments
 -----------------------------------------------------------------
    Charge (ESU x 10^10)
                 0.0000
    Dipole Moment (Debye)
         X       0.1477      Y       1.4979      Z      -0.4765
       Tot       1.5788
    Quadrupole Moments (Debye-Ang)
        XX     -25.0173     XY      -1.1315     YY     -18.4236
        XZ       0.4721     YZ      -0.6863     ZZ     -24.4927

 Total job time:  217.58s(wall), 1172.57s(cpu)
        *  Thank you very much for using Q-Chem.  Have a nice day.  *
