 Q-Chem 4.3, Q-Chem, Inc., Pleasanton, CA (2015)
 Q-Chem 4.3.0 for Intel X86 Linux

User input:
--------------------------------------------------------------
$comment
XAS calculation for the 2b valence excited for water using cvs-adc(2)-x + 6-311+G* basis set
job 1 - determination of HF orbitals
$end

$molecule
0 1
6  -0.561664  2.724343  -0.156999
9  0.644996  2.584513  -0.082087
9  -1.065201  3.61149  0.686968
9  -1.436072  0.105957  0.82335
9  -1.060414  2.874043  -1.321605
$end

$rem
jobtype      sp
sym_ignore true
exchange     hf
basis        6-31G*
unrestricted true
$end

--------------------------------------------------------------

   14    -435.3439213673      6.78E-06 Convergence criterion met
 Total energy in the final basis set = -435.3439213673
 Total job time:  3.73s(wall), 14.84s(cpu)
        *  Thank you very much for using Q-Chem.  Have a nice day.  *
 Q-Chem 4.3, Q-Chem, Inc., Pleasanton, CA (2015)
 Q-Chem 4.3.0 for Intel X86 Linux

User input:
--------------------------------------------------------------

$comment
job3 - cvs-adc(2) calculation
$end

$molecule
read
$end

$rem
mem_total 3000
mem_static 1500
sym_ignore true
scf_guess read
method cvs-adc(2)
basis 6-31G*
ee_singlets 20
cc_rest_occ 5                  !only excitations from the lowest N orbitals
unrestricted  true
max_scf_cycles 200
$end
--------------------------------------------------------------

             Standard Nuclear Orientation (Angstroms)
    I     Atom           X                Y                Z
 ----------------------------------------------------------------
    1      C      -0.5616640000     2.7243430000    -0.1569990000
    2      F       0.6449960000     2.5845130000    -0.0820870000
    3      F      -1.0652010000     3.6114900000     0.6869680000
    4      F      -1.4360720000     0.1059570000     0.8233500000
    5      F      -1.0604140000     2.8740430000    -1.3216050000
 ----------------------------------------------------------------

    9    -435.3439215710      3.52E-09 Convergence criterion met
 Total energy in the final basis set = -435.3439215710
  Term symbol:  2 (-) A                                     R^2 =  5.19330e-13
  Excitation energy:                                             294.148884 eV
  Term symbol:  3 (-) A                                     R^2 =  5.80728e-13
  Excitation energy:                                             295.961422 eV
  Term symbol:  4 (-) A                                     R^2 =  3.25665e-13
  Excitation energy:                                             301.791806 eV
  Term symbol:  5 (-) A                                     R^2 =  1.60705e-13
  Excitation energy:                                             302.941426 eV
  Term symbol:  6 (-) A                                     R^2 =  4.77144e-13
  Excitation energy:                                             303.873749 eV
  Term symbol:  7 (-) A                                     R^2 =  1.02647e-13
  Excitation energy:                                             304.531578 eV
  Term symbol:  8 (-) A                                     R^2 =  5.69613e-13
  Excitation energy:                                             304.966970 eV
  Term symbol:  9 (-) A                                     R^2 =  2.78465e-13
  Excitation energy:                                             306.401133 eV
  Term symbol:  10 (-) A                                    R^2 =  1.97781e-13
  Excitation energy:                                             313.260370 eV
  Excited state 10 (A)                                             [converged]
  Term symbol:  11 (-) A                                    R^2 =  2.21444e-13
  Excitation energy:                                             313.772849 eV
  Excited state 11 (A)                                             [converged]
  Term symbol:  12 (-) A                                    R^2 =  1.01027e-13
  Excitation energy:                                             313.995215 eV
  Excited state 12 (A)                                             [converged]
  Term symbol:  13 (-) A                                    R^2 =  1.85547e-13
  Excitation energy:                                             314.037929 eV
  Excited state 13 (A)                                             [converged]
  Term symbol:  14 (-) A                                    R^2 =  8.91953e-14
  Excitation energy:                                             314.108562 eV
  Excited state 14 (A)                                             [converged]
  Term symbol:  15 (-) A                                    R^2 =  2.46687e-13
  Excitation energy:                                             314.259410 eV
  Excited state 15 (A)                                             [converged]
  Term symbol:  16 (-) A                                    R^2 =  2.31232e-13
  Excitation energy:                                             314.549716 eV
  Excited state 16 (A)                                             [converged]
  Term symbol:  17 (-) A                                    R^2 =  1.13618e-12
  Excitation energy:                                             315.333636 eV
  Excited state 17 (A)                                             [converged]
  Term symbol:  18 (-) A                                    R^2 =  1.91997e-11
  Excitation energy:                                             325.539704 eV
  Excited state 18 (A)                                             [converged]
  Term symbol:  19 (-) A                                    R^2 =  3.03303e-11
  Excitation energy:                                             325.622116 eV
  Excited state 19 (A)                                         [not converged]
  Term symbol:  20 (-) A                                    R^2 =  4.71754e-06
  Excitation energy:                                             331.054567 eV
  Excited state 20 (A)                                         [not converged]
  Term symbol:  21 (-) A                                    R^2 =  1.80338e-02
  Excitation energy:                                             331.211816 eV

                    Orbital Energies (a.u.)
 --------------------------------------------------------------

 Alpha MOs
 -- Occupied --
-26.536 -26.512 -26.492 -26.097 -11.731  -1.926  -1.828  -1.779
 -1.317  -1.104  -1.001  -0.990  -0.944  -0.849  -0.835  -0.823
 -0.800  -0.788  -0.435  -0.435  -0.361

 Beta MOs
 -- Occupied --
-26.536 -26.512 -26.492 -26.097 -11.731  -1.926  -1.828  -1.779
 -1.317  -1.104  -1.001  -0.990  -0.944  -0.849  -0.835  -0.823
 -0.800  -0.788  -0.435  -0.435  -0.361

          Ground-State Mulliken Net Atomic Charges

     Atom                 Charge (a.u.)    Spin (a.u.)
  --------------------------------------------------------
      1 C                     1.147181       0.000000
      2 F                    -0.112602       0.000000
      3 F                    -0.230703       0.000000
      4 F                    -0.619045       0.000000
      5 F                    -0.184830       0.000000
  --------------------------------------------------------
  Sum of atomic charges =     0.000000

                    Cartesian Multipole Moments
 -----------------------------------------------------------------
    Charge (ESU x 10^10)
                 0.0000
    Dipole Moment (Debye)
         X       2.8730      Y       7.2956      Z      -2.9526
       Tot       8.3784
    Quadrupole Moments (Debye-Ang)
        XX     -28.5846     XY      -2.5637     YY      -3.0162
        XZ       3.6682     YZ      -2.1543     ZZ     -25.4199

 Total job time:  2030.41s(wall), 3356.75s(cpu)
        *  Thank you very much for using Q-Chem.  Have a nice day.  *
