 Q-Chem 4.3, Q-Chem, Inc., Pleasanton, CA (2015)
 Q-Chem 4.3.0 for Intel X86 Linux

User input:
--------------------------------------------------------------
$comment
XAS calculation for the 2b valence excited for water using cvs-adc(2)-x + 6-311+G* basis set
job 1 - determination of HF orbitals
$end

$molecule
0 1
6  -0.352116  2.878948  -0.282494
9  0.714101  2.624152  -0.136833
9  -1.11284  3.118062  0.777746
9  -1.60836  0.723677  0.807098
9  -1.024934  2.648494  -1.268061
$end

$rem
jobtype      sp
sym_ignore true
exchange     hf
basis        6-31G*
unrestricted true
$end

--------------------------------------------------------------

   12    -435.3282988196      2.84E-06 Convergence criterion met
 Total energy in the final basis set = -435.3282988196
 Total job time:  3.24s(wall), 13.68s(cpu)
        *  Thank you very much for using Q-Chem.  Have a nice day.  *
 Q-Chem 4.3, Q-Chem, Inc., Pleasanton, CA (2015)
 Q-Chem 4.3.0 for Intel X86 Linux

User input:
--------------------------------------------------------------

$comment
job3 - cvs-adc(2) calculation
$end

$molecule
read
$end

$rem
mem_total 3000
mem_static 1500
sym_ignore true
scf_guess read
method cvs-adc(2)
basis 6-31G*
ee_singlets 20
cc_rest_occ 5                  !only excitations from the lowest N orbitals
unrestricted  true
max_scf_cycles 200
$end
--------------------------------------------------------------

             Standard Nuclear Orientation (Angstroms)
    I     Atom           X                Y                Z
 ----------------------------------------------------------------
    1      C      -0.3521160000     2.8789480000    -0.2824940000
    2      F       0.7141010000     2.6241520000    -0.1368330000
    3      F      -1.1128400000     3.1180620000     0.7777460000
    4      F      -1.6083600000     0.7236770000     0.8070980000
    5      F      -1.0249340000     2.6484940000    -1.2680610000
 ----------------------------------------------------------------

    7    -435.3282988184      6.34E-09 Convergence criterion met
 Total energy in the final basis set = -435.3282988184
  Term symbol:  2 (-) A                                     R^2 =  1.50172e-03
  Excitation energy:                                             294.397954 eV
  Term symbol:  3 (-) A                                     R^2 =  6.36141e-04
  Excitation energy:                                             296.267379 eV
  Term symbol:  4 (-) A                                     R^2 =  3.35264e-04
  Excitation energy:                                             302.486409 eV
  Term symbol:  5 (-) A                                     R^2 =  3.07247e-04
  Excitation energy:                                             304.392782 eV
  Term symbol:  6 (-) A                                     R^2 =  2.88408e-04
  Excitation energy:                                             304.550546 eV
  Term symbol:  7 (-) A                                     R^2 =  3.91776e-04
  Excitation energy:                                             306.144937 eV
  Term symbol:  8 (-) A                                     R^2 =  3.06825e-04
  Excitation energy:                                             308.636533 eV
  Term symbol:  9 (-) A                                     R^2 =  4.73382e-04
  Excitation energy:                                             310.323177 eV
  Term symbol:  10 (-) A                                    R^2 =  1.03494e-03
  Excitation energy:                                             312.932306 eV
  Excited state 10 (A)                                         [not converged]
  Term symbol:  11 (-) A                                    R^2 =  1.49439e-03
  Excitation energy:                                             314.062274 eV
  Excited state 11 (A)                                         [not converged]
  Term symbol:  12 (-) A                                    R^2 =  1.19076e-03
  Excitation energy:                                             314.211729 eV
  Excited state 12 (A)                                         [not converged]
  Term symbol:  13 (-) A                                    R^2 =  2.05597e-04
  Excitation energy:                                             314.527874 eV
  Excited state 13 (A)                                         [not converged]
  Term symbol:  14 (-) A                                    R^2 =  1.26108e-04
  Excitation energy:                                             314.973593 eV
  Excited state 14 (A)                                         [not converged]
  Term symbol:  15 (-) A                                    R^2 =  1.55682e-04
  Excitation energy:                                             316.012790 eV
  Excited state 15 (A)                                         [not converged]
  Term symbol:  16 (-) A                                    R^2 =  2.24268e-04
  Excitation energy:                                             317.508661 eV
  Excited state 16 (A)                                         [not converged]
  Term symbol:  17 (-) A                                    R^2 =  1.43227e-05
  Excitation energy:                                             318.321702 eV
  Excited state 17 (A)                                         [not converged]
  Term symbol:  18 (-) A                                    R^2 =  3.55375e-01
  Excitation energy:                                             329.046882 eV
  Excited state 18 (A)                                         [not converged]
  Term symbol:  19 (-) A                                    R^2 =  4.95879e-05
  Excitation energy:                                             330.418553 eV
  Excited state 19 (A)                                         [not converged]
  Term symbol:  20 (-) A                                    R^2 =  5.30450e-05
  Excitation energy:                                             330.634625 eV
  Excited state 20 (A)                                         [not converged]
  Term symbol:  21 (-) A                                    R^2 =  2.62719e-05
  Excitation energy:                                             332.391327 eV

                    Orbital Energies (a.u.)
 --------------------------------------------------------------

 Alpha MOs
 -- Occupied --
-26.617 -26.549 -26.478 -25.940 -11.753  -2.052  -1.903  -1.773
 -1.200  -1.167  -1.077  -1.046  -1.032  -0.891  -0.876  -0.846
 -0.788  -0.785  -0.309  -0.307  -0.304

 Beta MOs
 -- Occupied --
-26.617 -26.549 -26.478 -25.940 -11.753  -2.052  -1.903  -1.773
 -1.200  -1.167  -1.077  -1.046  -1.032  -0.891  -0.876  -0.846
 -0.788  -0.785  -0.309  -0.307  -0.304

          Ground-State Mulliken Net Atomic Charges

     Atom                 Charge (a.u.)    Spin (a.u.)
  --------------------------------------------------------
      1 C                     1.103193       0.000000
      2 F                     0.054284       0.000000
      3 F                    -0.173822       0.000000
      4 F                    -0.892671       0.000000
      5 F                    -0.090984       0.000000
  --------------------------------------------------------
  Sum of atomic charges =     0.000000

                    Cartesian Multipole Moments
 -----------------------------------------------------------------
    Charge (ESU x 10^10)
                 0.0000
    Dipole Moment (Debye)
         X       6.0365      Y       9.0225      Z      -4.8980
       Tot      11.9095
    Quadrupole Moments (Debye-Ang)
        XX     -32.9561     XY       2.9771     YY      10.2016
        XZ       5.9281     YZ      -7.0862     ZZ     -25.0240

 Total job time:  2158.06s(wall), 3569.71s(cpu)
        *  Thank you very much for using Q-Chem.  Have a nice day.  *
