 Q-Chem 4.3, Q-Chem, Inc., Pleasanton, CA (2015)
 Q-Chem 4.3.0 for Intel X86 Linux

User input:
--------------------------------------------------------------
$comment
XAS calculation for the 2b valence excited for water using cvs-adc(2)-x + 6-311+G* basis set
job 1 - determination of HF orbitals
$end

$molecule
0 1
6  -0.484436  2.964352  -0.224812
9  0.672316  2.372292  -0.031514
9  -1.131536  3.156375  0.78315
9  -1.353389  0.927389  0.616145
9  -1.105968  2.543717  -1.227828
$end

$rem
jobtype      sp
sym_ignore true
exchange     hf
basis        6-31G*
unrestricted true
$end

--------------------------------------------------------------

   12    -435.3437356555      6.75E-06 Convergence criterion met
 Total energy in the final basis set = -435.3437356555
 Total job time:  3.25s(wall), 14.90s(cpu)
        *  Thank you very much for using Q-Chem.  Have a nice day.  *
 Q-Chem 4.3, Q-Chem, Inc., Pleasanton, CA (2015)
 Q-Chem 4.3.0 for Intel X86 Linux

User input:
--------------------------------------------------------------

$comment
job3 - cvs-adc(2) calculation
$end

$molecule
read
$end

$rem
mem_total 3000
mem_static 1500
sym_ignore true
scf_guess read
method cvs-adc(2)
basis 6-31G*
ee_singlets 20
cc_rest_occ 5                  !only excitations from the lowest N orbitals
unrestricted  true
max_scf_cycles 200
$end
--------------------------------------------------------------

             Standard Nuclear Orientation (Angstroms)
    I     Atom           X                Y                Z
 ----------------------------------------------------------------
    1      C      -0.4844360000     2.9643520000    -0.2248120000
    2      F       0.6723160000     2.3722920000    -0.0315140000
    3      F      -1.1315360000     3.1563750000     0.7831500000
    4      F      -1.3533890000     0.9273890000     0.6161450000
    5      F      -1.1059680000     2.5437170000    -1.2278280000
 ----------------------------------------------------------------

   10    -435.3437360677      9.95E-09 Convergence criterion met
 Total energy in the final basis set = -435.3437360677
  Term symbol:  2 (-) A                                     R^2 =  1.95574e-12
  Excitation energy:                                             292.960154 eV
  Term symbol:  3 (-) A                                     R^2 =  7.48591e-13
  Excitation energy:                                             294.732599 eV
  Term symbol:  4 (-) A                                     R^2 =  3.86345e-13
  Excitation energy:                                             302.365565 eV
  Term symbol:  5 (-) A                                     R^2 =  5.26450e-13
  Excitation energy:                                             303.920555 eV
  Term symbol:  6 (-) A                                     R^2 =  6.38481e-13
  Excitation energy:                                             304.482781 eV
  Term symbol:  7 (-) A                                     R^2 =  1.90998e-12
  Excitation energy:                                             305.074993 eV
  Term symbol:  8 (-) A                                     R^2 =  1.18882e-11
  Excitation energy:                                             305.978579 eV
  Term symbol:  9 (-) A                                     R^2 =  3.05884e-12
  Excitation energy:                                             306.985469 eV
  Term symbol:  10 (-) A                                    R^2 =  9.03594e-13
  Excitation energy:                                             312.127224 eV
  Excited state 10 (A)                                             [converged]
  Term symbol:  11 (-) A                                    R^2 =  2.17994e-12
  Excitation energy:                                             313.594100 eV
  Excited state 11 (A)                                             [converged]
  Term symbol:  12 (-) A                                    R^2 =  4.34049e-13
  Excitation energy:                                             313.912799 eV
  Excited state 12 (A)                                             [converged]
  Term symbol:  13 (-) A                                    R^2 =  1.16928e-12
  Excitation energy:                                             313.996791 eV
  Excited state 13 (A)                                             [converged]
  Term symbol:  14 (-) A                                    R^2 =  1.08136e-12
  Excitation energy:                                             314.396860 eV
  Excited state 14 (A)                                             [converged]
  Term symbol:  15 (-) A                                    R^2 =  1.80396e-12
  Excitation energy:                                             314.608218 eV
  Excited state 15 (A)                                             [converged]
  Term symbol:  16 (-) A                                    R^2 =  1.78994e-12
  Excitation energy:                                             319.613664 eV
  Excited state 16 (A)                                             [converged]
  Term symbol:  17 (-) A                                    R^2 =  1.49660e-12
  Excitation energy:                                             320.151603 eV
  Excited state 17 (A)                                         [not converged]
  Term symbol:  18 (-) A                                    R^2 =  2.45257e-01
  Excitation energy:                                             324.521199 eV
  Excited state 18 (A)                                         [not converged]
  Term symbol:  19 (-) A                                    R^2 =  4.00324e-01
  Excitation energy:                                             325.865714 eV
  Excited state 19 (A)                                         [not converged]
  Term symbol:  20 (-) A                                    R^2 =  1.10160e-04
  Excitation energy:                                             331.754191 eV
  Excited state 20 (A)                                         [not converged]
  Term symbol:  21 (-) A                                    R^2 =  2.62537e-04
  Excitation energy:                                             331.906878 eV

                    Orbital Energies (a.u.)
 --------------------------------------------------------------

 Alpha MOs
 -- Occupied --
-26.532 -26.519 -26.498 -25.974 -11.736  -1.923  -1.829  -1.785
 -1.240  -1.098  -1.001  -0.993  -0.937  -0.840  -0.829  -0.812
 -0.796  -0.789  -0.345  -0.345  -0.338

 Beta MOs
 -- Occupied --
-26.532 -26.519 -26.498 -25.974 -11.736  -1.923  -1.829  -1.785
 -1.240  -1.098  -1.001  -0.993  -0.937  -0.840  -0.829  -0.812
 -0.796  -0.789  -0.345  -0.345  -0.338

          Ground-State Mulliken Net Atomic Charges

     Atom                 Charge (a.u.)    Spin (a.u.)
  --------------------------------------------------------
      1 C                     1.229066       0.000000
      2 F                    -0.191625       0.000000
      3 F                    -0.046368       0.000000
      4 F                    -0.867167       0.000000
      5 F                    -0.123906       0.000000
  --------------------------------------------------------
  Sum of atomic charges =     0.000000

                    Cartesian Multipole Moments
 -----------------------------------------------------------------
    Charge (ESU x 10^10)
                 0.0000
    Dipole Moment (Debye)
         X       3.1774      Y       8.5964      Z      -3.2852
       Tot       9.7358
    Quadrupole Moments (Debye-Ang)
        XX     -29.1385     XY      -1.6033     YY      11.9115
        XZ       3.5834     YZ      -4.9109     ZZ     -23.9905

 Total job time:  2193.30s(wall), 3599.56s(cpu)
        *  Thank you very much for using Q-Chem.  Have a nice day.  *
