 Q-Chem 4.3, Q-Chem, Inc., Pleasanton, CA (2015)
 Q-Chem 4.3.0 for Intel X86 Linux

User input:
--------------------------------------------------------------
$comment
XAS calculation for the 2b valence excited for water using cvs-adc(2)-x + 6-311+G* basis set
job 1 - determination of HF orbitals
$end

$molecule
0 1
6  -0.344829  3.092093  -0.386996
9  0.917277  2.990072  -0.29245
9  -0.974155  3.13582  0.716373
9  -2.148561  0.043354  1.239744
9  -0.860724  2.856185  -1.41804
$end

$rem
jobtype      sp
sym_ignore true
exchange     hf
basis        6-31G*
unrestricted true
$end

--------------------------------------------------------------

   16    -435.2834869256      8.05E-06 Convergence criterion met
 Total energy in the final basis set = -435.2834869256
 Total job time:  4.14s(wall), 19.42s(cpu)
        *  Thank you very much for using Q-Chem.  Have a nice day.  *
 Q-Chem 4.3, Q-Chem, Inc., Pleasanton, CA (2015)
 Q-Chem 4.3.0 for Intel X86 Linux

User input:
--------------------------------------------------------------

$comment
job3 - cvs-adc(2) calculation
$end

$molecule
read
$end

$rem
mem_total 3000
mem_static 1500
sym_ignore true
scf_guess read
method cvs-adc(2)
basis 6-31G*
ee_singlets 20
cc_rest_occ 5                  !only excitations from the lowest N orbitals
unrestricted  true
max_scf_cycles 200
$end
--------------------------------------------------------------

             Standard Nuclear Orientation (Angstroms)
    I     Atom           X                Y                Z
 ----------------------------------------------------------------
    1      C      -0.3448290000     3.0920930000    -0.3869960000
    2      F       0.9172770000     2.9900720000    -0.2924500000
    3      F      -0.9741550000     3.1358200000     0.7163730000
    4      F      -2.1485610000     0.0433540000     1.2397440000
    5      F      -0.8607240000     2.8561850000    -1.4180400000
 ----------------------------------------------------------------

   16    -435.2834896258      6.24E-09 Convergence criterion met
 Total energy in the final basis set = -435.2834896258
  Term symbol:  2 (-) A                                     R^2 =  7.53376e-13
  Excitation energy:                                             294.150974 eV
  Term symbol:  3 (-) A                                     R^2 =  1.03119e-12
  Excitation energy:                                             296.013175 eV
  Term symbol:  4 (-) A                                     R^2 =  1.70575e-12
  Excitation energy:                                             302.315389 eV
  Term symbol:  5 (-) A                                     R^2 =  5.32798e-12
  Excitation energy:                                             303.812275 eV
  Term symbol:  6 (-) A                                     R^2 =  1.65976e-12
  Excitation energy:                                             304.081745 eV
  Term symbol:  7 (-) A                                     R^2 =  5.95208e-12
  Excitation energy:                                             305.950651 eV
  Term symbol:  8 (-) A                                     R^2 =  2.42878e-11
  Excitation energy:                                             306.366965 eV
  Term symbol:  9 (-) A                                     R^2 =  2.42557e-12
  Excitation energy:                                             308.345036 eV
  Term symbol:  10 (-) A                                    R^2 =  2.75946e-12
  Excitation energy:                                             313.100240 eV
  Excited state 10 (A)                                             [converged]
  Term symbol:  11 (-) A                                    R^2 =  1.26781e-12
  Excitation energy:                                             314.237542 eV
  Excited state 11 (A)                                             [converged]
  Term symbol:  12 (-) A                                    R^2 =  3.55374e-12
  Excitation energy:                                             314.352522 eV
  Excited state 12 (A)                                             [converged]
  Term symbol:  13 (-) A                                    R^2 =  7.97664e-12
  Excitation energy:                                             314.885762 eV
  Excited state 13 (A)                                             [converged]
  Term symbol:  14 (-) A                                    R^2 =  6.51842e-12
  Excitation energy:                                             315.010806 eV
  Excited state 14 (A)                                             [converged]
  Term symbol:  15 (-) A                                    R^2 =  5.24487e-12
  Excitation energy:                                             315.027124 eV
  Excited state 15 (A)                                             [converged]
  Term symbol:  16 (-) A                                    R^2 =  5.79828e-13
  Excitation energy:                                             315.399192 eV
  Excited state 16 (A)                                             [converged]
  Term symbol:  17 (-) A                                    R^2 =  6.54467e-13
  Excitation energy:                                             315.925108 eV
  Excited state 17 (A)                                             [converged]
  Term symbol:  18 (-) A                                    R^2 =  6.60520e-10
  Excitation energy:                                             322.975012 eV
  Excited state 18 (A)                                             [converged]
  Term symbol:  19 (-) A                                    R^2 =  1.76723e-11
  Excitation energy:                                             322.981455 eV
  Excited state 19 (A)                                         [not converged]
  Term symbol:  20 (-) A                                    R^2 =  1.82534e-01
  Excitation energy:                                             323.647963 eV
  Excited state 20 (A)                                         [not converged]
  Term symbol:  21 (-) A                                    R^2 =  1.34661e-03
  Excitation energy:                                             329.186273 eV

                    Orbital Energies (a.u.)
 --------------------------------------------------------------

 Alpha MOs
 -- Occupied --
-26.641 -26.597 -26.587 -25.855 -11.817  -2.039  -1.927  -1.883
 -1.192  -1.122  -1.099  -1.092  -1.048  -0.930  -0.925  -0.915
 -0.884  -0.874  -0.233  -0.233  -0.225

 Beta MOs
 -- Occupied --
-26.641 -26.597 -26.587 -25.855 -11.817  -2.039  -1.927  -1.883
 -1.192  -1.122  -1.099  -1.092  -1.048  -0.930  -0.925  -0.915
 -0.884  -0.874  -0.233  -0.233  -0.225

          Ground-State Mulliken Net Atomic Charges

     Atom                 Charge (a.u.)    Spin (a.u.)
  --------------------------------------------------------
      1 C                     1.252915       0.000000
      2 F                    -0.152552       0.000000
      3 F                    -0.107877       0.000000
      4 F                    -0.963631       0.000000
      5 F                    -0.028855       0.000000
  --------------------------------------------------------
  Sum of atomic charges =     0.000000

                    Cartesian Multipole Moments
 -----------------------------------------------------------------
    Charge (ESU x 10^10)
                 0.0000
    Dipole Moment (Debye)
         X       7.8486      Y      13.9076      Z      -7.6697
       Tot      17.7157
    Quadrupole Moments (Debye-Ang)
        XX     -42.8612     XY      -5.6218     YY      21.5917
        XZ      13.0692     YZ      -6.4822     ZZ     -28.2166

 Total job time:  2008.94s(wall), 3253.83s(cpu)
        *  Thank you very much for using Q-Chem.  Have a nice day.  *
