 Q-Chem 4.3, Q-Chem, Inc., Pleasanton, CA (2015)
 Q-Chem 4.3.0 for Intel X86 Linux

User input:
--------------------------------------------------------------
$comment
XAS calculation for the 2b valence excited for water using cvs-adc(2)-x + 6-311+G* basis set
job 1 - determination of HF orbitals
$end

$molecule
0 1
6  -0.571782  2.684256  -0.12654
9  0.682852  2.577217  -0.099159
9  -1.051067  3.477775  0.690843
9  -1.471029  0.327791  0.800577
9  -1.036863  2.803968  -1.313856
$end

$rem
jobtype      sp
sym_ignore true
exchange     hf
basis        6-31G*
unrestricted true
$end

--------------------------------------------------------------

   10    -435.3821351294      7.61E-06 Convergence criterion met
 Total energy in the final basis set = -435.3821351294
 Total job time:  27.02s(wall), 11.54s(cpu)
        *  Thank you very much for using Q-Chem.  Have a nice day.  *
 Q-Chem 4.3, Q-Chem, Inc., Pleasanton, CA (2015)
 Q-Chem 4.3.0 for Intel X86 Linux

User input:
--------------------------------------------------------------

$comment
job3 - cvs-adc(2) calculation
$end

$molecule
read
$end

$rem
mem_total 3000
mem_static 1500
sym_ignore true
scf_guess read
method cvs-adc(2)
basis 6-31G*
ee_singlets 20
cc_rest_occ 5                  !only excitations from the lowest N orbitals
unrestricted  true
max_scf_cycles 200
$end
--------------------------------------------------------------

             Standard Nuclear Orientation (Angstroms)
    I     Atom           X                Y                Z
 ----------------------------------------------------------------
    1      C      -0.5717820000     2.6842560000    -0.1265400000
    2      F       0.6828520000     2.5772170000    -0.0991590000
    3      F      -1.0510670000     3.4777750000     0.6908430000
    4      F      -1.4710290000     0.3277910000     0.8005770000
    5      F      -1.0368630000     2.8039680000    -1.3138560000
 ----------------------------------------------------------------

    8    -435.3821359428      5.63E-09 Convergence criterion met
 Total energy in the final basis set = -435.3821359428
  Term symbol:  2 (-) A                                     R^2 =  1.34958e-12
  Excitation energy:                                             294.205748 eV
  Term symbol:  3 (-) A                                     R^2 =  2.42623e-13
  Excitation energy:                                             296.088808 eV
  Term symbol:  4 (-) A                                     R^2 =  1.56405e-13
  Excitation energy:                                             302.907920 eV
  Term symbol:  5 (-) A                                     R^2 =  4.91266e-13
  Excitation energy:                                             303.520688 eV
  Term symbol:  6 (-) A                                     R^2 =  2.93156e-13
  Excitation energy:                                             304.140227 eV
  Term symbol:  7 (-) A                                     R^2 =  2.13899e-13
  Excitation energy:                                             304.983318 eV
  Term symbol:  8 (-) A                                     R^2 =  2.47414e-13
  Excitation energy:                                             305.541723 eV
  Term symbol:  9 (-) A                                     R^2 =  2.20584e-13
  Excitation energy:                                             306.097098 eV
  Term symbol:  10 (-) A                                    R^2 =  2.80630e-13
  Excitation energy:                                             313.211085 eV
  Excited state 10 (A)                                             [converged]
  Term symbol:  11 (-) A                                    R^2 =  2.40733e-13
  Excitation energy:                                             313.965611 eV
  Excited state 11 (A)                                             [converged]
  Term symbol:  12 (-) A                                    R^2 =  2.97745e-13
  Excitation energy:                                             314.035674 eV
  Excited state 12 (A)                                             [converged]
  Term symbol:  13 (-) A                                    R^2 =  4.92860e-13
  Excitation energy:                                             314.081588 eV
  Excited state 13 (A)                                             [converged]
  Term symbol:  14 (-) A                                    R^2 =  5.04014e-13
  Excitation energy:                                             314.449917 eV
  Excited state 14 (A)                                             [converged]
  Term symbol:  15 (-) A                                    R^2 =  9.45092e-13
  Excitation energy:                                             314.567292 eV
  Excited state 15 (A)                                             [converged]
  Term symbol:  16 (-) A                                    R^2 =  2.78057e-12
  Excitation energy:                                             314.985175 eV
  Excited state 16 (A)                                             [converged]
  Term symbol:  17 (-) A                                    R^2 =  9.90246e-12
  Excitation energy:                                             316.106183 eV
  Excited state 17 (A)                                             [converged]
  Term symbol:  18 (-) A                                    R^2 =  1.70869e-09
  Excitation energy:                                             327.590899 eV
  Excited state 18 (A)                                             [converged]
  Term symbol:  19 (-) A                                    R^2 =  1.31902e-09
  Excitation energy:                                             327.662183 eV
  Excited state 19 (A)                                         [not converged]
  Term symbol:  20 (-) A                                    R^2 =  1.19193e-03
  Excitation energy:                                             331.461516 eV
  Excited state 20 (A)                                         [not converged]
  Term symbol:  21 (-) A                                    R^2 =  5.02118e-04
  Excitation energy:                                             331.599729 eV

                    Orbital Energies (a.u.)
 --------------------------------------------------------------

 Alpha MOs
 -- Occupied --
-26.512 -26.503 -26.495 -26.115 -11.721  -1.916  -1.816  -1.795
 -1.333  -1.095  -0.994  -0.990  -0.936  -0.841  -0.836  -0.810
 -0.802  -0.785  -0.450  -0.450  -0.386

 Beta MOs
 -- Occupied --
-26.512 -26.503 -26.495 -26.115 -11.721  -1.916  -1.816  -1.795
 -1.333  -1.095  -0.994  -0.990  -0.936  -0.841  -0.836  -0.810
 -0.802  -0.785  -0.450  -0.450  -0.386

          Ground-State Mulliken Net Atomic Charges

     Atom                 Charge (a.u.)    Spin (a.u.)
  --------------------------------------------------------
      1 C                     1.127746       0.000000
      2 F                    -0.176314       0.000000
      3 F                    -0.147518       0.000000
      4 F                    -0.604061       0.000000
      5 F                    -0.199852       0.000000
  --------------------------------------------------------
  Sum of atomic charges =     0.000000

                    Cartesian Multipole Moments
 -----------------------------------------------------------------
    Charge (ESU x 10^10)
                 0.0000
    Dipole Moment (Debye)
         X       2.5026      Y       6.6414      Z      -2.4269
       Tot       7.5008
    Quadrupole Moments (Debye-Ang)
        XX     -28.5733     XY      -2.8001     YY      -2.7282
        XZ       3.2460     YZ      -1.3977     ZZ     -25.2981

 Total job time:  2147.44s(wall), 3473.46s(cpu)
        *  Thank you very much for using Q-Chem.  Have a nice day.  *
