 Q-Chem 4.3, Q-Chem, Inc., Pleasanton, CA (2015)
 Q-Chem 4.3.0 for Intel X86 Linux

User input:
--------------------------------------------------------------
$comment
XAS calculation for the 2b valence excited for water using cvs-adc(2)-x + 6-311+G* basis set
job 1 - determination of HF orbitals
$end

$molecule
0 1
6  -0.543906  3.121289  -0.221612
9  0.49779  2.453644  0.030179
9  -1.012839  3.818844  0.60279
9  -1.269543  -0.291043  0.792912
9  -1.115474  2.930112  -1.282703
$end

$rem
jobtype      sp
sym_ignore true
exchange     hf
basis        6-31G*
unrestricted true
$end

--------------------------------------------------------------

   12    -435.3059202512      7.76E-06 Convergence criterion met
 Total energy in the final basis set = -435.3059202512
 Total job time:  2.83s(wall), 10.61s(cpu)
        *  Thank you very much for using Q-Chem.  Have a nice day.  *
 Q-Chem 4.3, Q-Chem, Inc., Pleasanton, CA (2015)
 Q-Chem 4.3.0 for Intel X86 Linux

User input:
--------------------------------------------------------------

$comment
job3 - cvs-adc(2) calculation
$end

$molecule
read
$end

$rem
mem_total 3000
mem_static 1500
sym_ignore true
scf_guess read
method cvs-adc(2)
basis 6-31G*
ee_singlets 20
cc_rest_occ 1                  !only excitations from the lowest N orbitals
unrestricted  true
max_scf_cycles 200
$end
--------------------------------------------------------------

             Standard Nuclear Orientation (Angstroms)
    I     Atom           X                Y                Z
 ----------------------------------------------------------------
    1      C      -0.5439060000     3.1212890000    -0.2216120000
    2      F       0.4977900000     2.4536440000     0.0301790000
    3      F      -1.0128390000     3.8188440000     0.6027900000
    4      F      -1.2695430000    -0.2910430000     0.7929120000
    5      F      -1.1154740000     2.9301120000    -1.2827030000
 ----------------------------------------------------------------

    8    -435.3059206303      8.43E-09 Convergence criterion met
 Total energy in the final basis set = -435.3059206303
  Term symbol:  2 (-) A                                     R^2 =  3.46655e-13
  Excitation energy:                                             691.877872 eV
  Term symbol:  3 (-) A                                     R^2 =  2.21521e-13
  Excitation energy:                                             692.092440 eV
  Term symbol:  4 (-) A                                     R^2 =  1.83220e-13
  Excitation energy:                                             696.544513 eV
  Term symbol:  5 (-) A                                     R^2 =  2.25864e-13
  Excitation energy:                                             697.312823 eV
  Term symbol:  6 (-) A                                     R^2 =  4.60729e-13
  Excitation energy:                                             702.341228 eV
  Term symbol:  7 (-) A                                     R^2 =  3.71909e-13
  Excitation energy:                                             702.590082 eV
  Term symbol:  8 (-) A                                     R^2 =  2.63120e-13
  Excitation energy:                                             703.188875 eV
  Term symbol:  9 (-) A                                     R^2 =  1.61561e-13
  Excitation energy:                                             703.707073 eV
  Term symbol:  10 (-) A                                    R^2 =  2.99904e-13
  Excitation energy:                                             706.696777 eV
  Excited state 10 (A)                                             [converged]
  Term symbol:  11 (-) A                                    R^2 =  3.41274e-13
  Excitation energy:                                             707.096823 eV
  Excited state 11 (A)                                             [converged]
  Term symbol:  12 (-) A                                    R^2 =  3.37687e-13
  Excitation energy:                                             707.653301 eV
  Excited state 12 (A)                                             [converged]
  Term symbol:  13 (-) A                                    R^2 =  3.47499e-13
  Excitation energy:                                             707.767005 eV
  Excited state 13 (A)                                             [converged]
  Term symbol:  14 (-) A                                    R^2 =  1.85483e-13
  Excitation energy:                                             708.046612 eV
  Excited state 14 (A)                                             [converged]
  Term symbol:  15 (-) A                                    R^2 =  2.32502e-13
  Excitation energy:                                             708.144490 eV
  Excited state 15 (A)                                             [converged]
  Term symbol:  16 (-) A                                    R^2 =  5.34264e-13
  Excitation energy:                                             709.899739 eV
  Excited state 16 (A)                                             [converged]
  Term symbol:  17 (-) A                                    R^2 =  8.04673e-13
  Excitation energy:                                             709.908916 eV
  Excited state 17 (A)                                             [converged]
  Term symbol:  18 (-) A                                    R^2 =  2.78610e-10
  Excitation energy:                                             721.356652 eV
  Excited state 18 (A)                                             [converged]
  Term symbol:  19 (-) A                                    R^2 =  1.39680e-09
  Excitation energy:                                             722.389648 eV
  Excited state 19 (A)                                             [converged]
  Term symbol:  20 (-) A                                    R^2 =  1.45338e-08
  Excitation energy:                                             723.038944 eV
  Excited state 20 (A)                                         [not converged]
  Term symbol:  21 (-) A                                    R^2 =  2.13424e-05
  Excitation energy:                                             724.339176 eV

                    Orbital Energies (a.u.)
 --------------------------------------------------------------

 Alpha MOs
 -- Occupied --
-26.629 -26.603 -26.577 -25.867 -11.806  -2.040  -1.940  -1.888
 -1.188  -1.132  -1.106  -1.094  -1.050  -0.931  -0.925  -0.917
 -0.881  -0.872  -0.243  -0.243  -0.237

 Beta MOs
 -- Occupied --
-26.629 -26.603 -26.577 -25.867 -11.806  -2.040  -1.940  -1.888
 -1.188  -1.132  -1.106  -1.094  -1.050  -0.931  -0.925  -0.917
 -0.881  -0.872  -0.243  -0.243  -0.237

          Ground-State Mulliken Net Atomic Charges

     Atom                 Charge (a.u.)    Spin (a.u.)
  --------------------------------------------------------
      1 C                     1.223174       0.000000
      2 F                    -0.120001       0.000000
      3 F                    -0.047218       0.000000
      4 F                    -0.962046       0.000000
      5 F                    -0.093910       0.000000
  --------------------------------------------------------
  Sum of atomic charges =     0.000000

                    Cartesian Multipole Moments
 -----------------------------------------------------------------
    Charge (ESU x 10^10)
                 0.0000
    Dipole Moment (Debye)
         X       3.1630      Y      15.6446      Z      -4.5191
       Tot      16.5886
    Quadrupole Moments (Debye-Ang)
        XX     -28.1105     XY      -9.7662     YY      22.6553
        XZ       4.9678     YZ      -1.8685     ZZ     -24.8877

 Total job time:  218.87s(wall), 1192.62s(cpu)
        *  Thank you very much for using Q-Chem.  Have a nice day.  *
