 Q-Chem 4.3, Q-Chem, Inc., Pleasanton, CA (2015)
 Q-Chem 4.3.0 for Intel X86 Linux

User input:
--------------------------------------------------------------
$comment
XAS calculation for the 2b valence excited for water using cvs-adc(2)-x + 6-311+G* basis set
job 1 - determination of HF orbitals
$end

$molecule
0 1
6  -0.465012  3.152951  -0.285379
9  0.627912  2.60212  -0.096569
9  -1.032  3.566989  0.637018
9  -1.540369  -0.152063  0.934794
9  -1.025861  2.884555  -1.28705
$end

$rem
jobtype      sp
sym_ignore true
exchange     hf
basis        6-31G*
unrestricted true
$end

--------------------------------------------------------------

   12    -435.2899307420      5.78E-06 Convergence criterion met
 Total energy in the final basis set = -435.2899307420
 Total job time:  3.25s(wall), 11.99s(cpu)
        *  Thank you very much for using Q-Chem.  Have a nice day.  *
 Q-Chem 4.3, Q-Chem, Inc., Pleasanton, CA (2015)
 Q-Chem 4.3.0 for Intel X86 Linux

User input:
--------------------------------------------------------------

$comment
job3 - cvs-adc(2) calculation
$end

$molecule
read
$end

$rem
mem_total 3000
mem_static 1500
sym_ignore true
scf_guess read
method cvs-adc(2)
basis 6-31G*
ee_singlets 20
cc_rest_occ 5                  !only excitations from the lowest N orbitals
unrestricted  true
max_scf_cycles 200
$end
--------------------------------------------------------------

             Standard Nuclear Orientation (Angstroms)
    I     Atom           X                Y                Z
 ----------------------------------------------------------------
    1      C      -0.4650120000     3.1529510000    -0.2853790000
    2      F       0.6279120000     2.6021200000    -0.0965690000
    3      F      -1.0320000000     3.5669890000     0.6370180000
    4      F      -1.5403690000    -0.1520630000     0.9347940000
    5      F      -1.0258610000     2.8845550000    -1.2870500000
 ----------------------------------------------------------------

    8    -435.2899311973      8.28E-09 Convergence criterion met
 Total energy in the final basis set = -435.2899311973
  Term symbol:  2 (-) A                                     R^2 =  1.04142e-10
  Excitation energy:                                             294.341202 eV
  Term symbol:  3 (-) A                                     R^2 =  3.25759e-10
  Excitation energy:                                             296.216161 eV
  Term symbol:  4 (-) A                                     R^2 =  6.86968e-10
  Excitation energy:                                             303.991781 eV
  Term symbol:  5 (-) A                                     R^2 =  5.22079e-10
  Excitation energy:                                             305.602895 eV
  Term symbol:  6 (-) A                                     R^2 =  2.21830e-09
  Excitation energy:                                             305.726324 eV
  Term symbol:  7 (-) A                                     R^2 =  1.12595e-09
  Excitation energy:                                             307.471257 eV
  Term symbol:  8 (-) A                                     R^2 =  5.85890e-10
  Excitation energy:                                             307.713837 eV
  Term symbol:  9 (-) A                                     R^2 =  9.96204e-10
  Excitation energy:                                             309.545189 eV
  Term symbol:  10 (-) A                                    R^2 =  1.57580e-08
  Excitation energy:                                             312.841441 eV
  Excited state 10 (A)                                             [converged]
  Term symbol:  11 (-) A                                    R^2 =  1.33822e-08
  Excitation energy:                                             314.134482 eV
  Excited state 11 (A)                                             [converged]
  Term symbol:  12 (-) A                                    R^2 =  9.46983e-09
  Excitation energy:                                             314.366116 eV
  Excited state 12 (A)                                             [converged]
  Term symbol:  13 (-) A                                    R^2 =  6.95113e-09
  Excitation energy:                                             314.649132 eV
  Excited state 13 (A)                                             [converged]
  Term symbol:  14 (-) A                                    R^2 =  1.16692e-09
  Excitation energy:                                             314.786610 eV
  Excited state 14 (A)                                             [converged]
  Term symbol:  15 (-) A                                    R^2 =  1.19199e-08
  Excitation energy:                                             314.964645 eV
  Excited state 15 (A)                                             [converged]
  Term symbol:  16 (-) A                                    R^2 =  1.86995e-09
  Excitation energy:                                             315.165503 eV
  Excited state 16 (A)                                             [converged]
  Term symbol:  17 (-) A                                    R^2 =  3.13243e-09
  Excitation energy:                                             316.241487 eV
  Excited state 17 (A)                                         [not converged]
  Term symbol:  18 (-) A                                    R^2 =  6.77857e-02
  Excitation energy:                                             323.979789 eV
  Excited state 18 (A)                                         [not converged]
  Term symbol:  19 (-) A                                    R^2 =  1.05923e-01
  Excitation energy:                                             324.103309 eV
  Excited state 19 (A)                                         [not converged]
  Term symbol:  20 (-) A                                    R^2 =  3.15956e-01
  Excitation energy:                                             324.911849 eV
  Excited state 20 (A)                                         [not converged]
  Term symbol:  21 (-) A                                    R^2 =  4.14201e-05
  Excitation energy:                                             331.797894 eV

                    Orbital Energies (a.u.)
 --------------------------------------------------------------

 Alpha MOs
 -- Occupied --
-26.622 -26.612 -26.579 -25.857 -11.800  -2.063  -1.963  -1.905
 -1.193  -1.124  -1.123  -1.111  -1.068  -0.943  -0.933  -0.921
 -0.890  -0.875  -0.235  -0.235  -0.232

 Beta MOs
 -- Occupied --
-26.622 -26.612 -26.579 -25.857 -11.800  -2.063  -1.963  -1.905
 -1.193  -1.124  -1.123  -1.111  -1.068  -0.943  -0.933  -0.921
 -0.890  -0.875  -0.235  -0.235  -0.232

          Ground-State Mulliken Net Atomic Charges

     Atom                 Charge (a.u.)    Spin (a.u.)
  --------------------------------------------------------
      1 C                     1.151966       0.000000
      2 F                    -0.116021       0.000000
      3 F                    -0.015961       0.000000
      4 F                    -0.974708       0.000000
      5 F                    -0.045276       0.000000
  --------------------------------------------------------
  Sum of atomic charges =     0.000000

                    Cartesian Multipole Moments
 -----------------------------------------------------------------
    Charge (ESU x 10^10)
                 0.0000
    Dipole Moment (Debye)
         X       4.7062      Y      15.4444      Z      -5.6049
       Tot      17.0907
    Quadrupole Moments (Debye-Ang)
        XX     -32.0217     XY      -8.5407     YY      25.1685
        XZ       7.1985     YZ      -3.5331     ZZ     -25.6925

 Total job time:  2346.53s(wall), 3874.70s(cpu)
        *  Thank you very much for using Q-Chem.  Have a nice day.  *
