 Q-Chem 4.3, Q-Chem, Inc., Pleasanton, CA (2015)
 Q-Chem 4.3.0 for Intel X86 Linux

User input:
--------------------------------------------------------------
$comment
XAS calculation for the 2b valence excited for water using cvs-adc(2)-x + 6-311+G* basis set
job 1 - determination of HF orbitals
$end

$molecule
0 1
6  -0.678655  2.369666  -0.018852
9  0.599156  2.343346  0.002748
9  -1.131354  3.291458  0.78285
9  -1.130291  1.186702  0.424659
9  -1.131836  2.55607  -1.202543
$end

$rem
jobtype      sp
sym_ignore true
exchange     hf
basis        6-31G*
unrestricted true
$end

--------------------------------------------------------------

    8    -435.6428463467      3.42E-06 Convergence criterion met
 Total energy in the final basis set = -435.6428463467
 Total job time:  2.26s(wall), 8.97s(cpu)
        *  Thank you very much for using Q-Chem.  Have a nice day.  *
 Q-Chem 4.3, Q-Chem, Inc., Pleasanton, CA (2015)
 Q-Chem 4.3.0 for Intel X86 Linux

User input:
--------------------------------------------------------------

$comment
job3 - cvs-adc(2) calculation
$end

$molecule
read
$end

$rem
mem_total 3000
mem_static 1500
sym_ignore true
scf_guess read
method cvs-adc(2)
basis 6-31G*
ee_singlets 20
cc_rest_occ 5                  !only excitations from the lowest N orbitals
unrestricted  true
max_scf_cycles 200
$end
--------------------------------------------------------------

             Standard Nuclear Orientation (Angstroms)
    I     Atom           X                Y                Z
 ----------------------------------------------------------------
    1      C      -0.6786550000     2.3696660000    -0.0188520000
    2      F       0.5991560000     2.3433460000     0.0027480000
    3      F      -1.1313540000     3.2914580000     0.7828500000
    4      F      -1.1302910000     1.1867020000     0.4246590000
    5      F      -1.1318360000     2.5560700000    -1.2025430000
 ----------------------------------------------------------------

    5    -435.6428463313      2.72E-09 Convergence criterion met
 Total energy in the final basis set = -435.6428463313
  Term symbol:  2 (-) A                                     R^2 =  5.86217e-14
  Excitation energy:                                             300.817461 eV
  Term symbol:  3 (-) A                                     R^2 =  9.75586e-14
  Excitation energy:                                             301.784684 eV
  Term symbol:  4 (-) A                                     R^2 =  1.86756e-13
  Excitation energy:                                             302.307632 eV
  Term symbol:  5 (-) A                                     R^2 =  8.38512e-14
  Excitation energy:                                             302.966108 eV
  Term symbol:  6 (-) A                                     R^2 =  2.01311e-13
  Excitation energy:                                             303.946332 eV
  Term symbol:  7 (-) A                                     R^2 =  1.30142e-13
  Excitation energy:                                             304.037823 eV
  Term symbol:  8 (-) A                                     R^2 =  2.73051e-13
  Excitation energy:                                             304.469627 eV
  Term symbol:  9 (-) A                                     R^2 =  2.81799e-13
  Excitation energy:                                             306.625066 eV
  Term symbol:  10 (-) A                                    R^2 =  8.09524e-13
  Excitation energy:                                             313.054611 eV
  Excited state 10 (A)                                             [converged]
  Term symbol:  11 (-) A                                    R^2 =  3.81954e-13
  Excitation energy:                                             313.600188 eV
  Excited state 11 (A)                                             [converged]
  Term symbol:  12 (-) A                                    R^2 =  1.20995e-13
  Excitation energy:                                             313.689483 eV
  Excited state 12 (A)                                             [converged]
  Term symbol:  13 (-) A                                    R^2 =  2.65906e-13
  Excitation energy:                                             313.743262 eV
  Excited state 13 (A)                                             [converged]
  Term symbol:  14 (-) A                                    R^2 =  4.17885e-13
  Excitation energy:                                             313.823319 eV
  Excited state 14 (A)                                             [converged]
  Term symbol:  15 (-) A                                    R^2 =  1.22419e-13
  Excitation energy:                                             313.996953 eV
  Excited state 15 (A)                                             [converged]
  Term symbol:  16 (-) A                                    R^2 =  3.71644e-13
  Excitation energy:                                             314.083321 eV
  Excited state 16 (A)                                             [converged]
  Term symbol:  17 (-) A                                    R^2 =  2.11322e-13
  Excitation energy:                                             314.312656 eV
  Excited state 17 (A)                                             [converged]
  Term symbol:  18 (-) A                                    R^2 =  8.08825e-07
  Excitation energy:                                             330.184548 eV
  Excited state 18 (A)                                             [converged]
  Term symbol:  19 (-) A                                    R^2 =  2.82684e-07
  Excitation energy:                                             330.200212 eV
  Excited state 19 (A)                                             [converged]
  Term symbol:  20 (-) A                                    R^2 =  4.93688e-08
  Excitation energy:                                             330.207287 eV
  Excited state 20 (A)                                             [converged]
  Term symbol:  21 (-) A                                    R^2 =  8.45935e-08
  Excitation energy:                                             330.223718 eV

                    Orbital Energies (a.u.)
 --------------------------------------------------------------

 Alpha MOs
 -- Occupied --
-26.384 -26.383 -26.374 -26.356 -11.605  -1.817  -1.697  -1.683
 -1.655  -1.006  -0.896  -0.892  -0.885  -0.761  -0.759  -0.713
 -0.707  -0.693  -0.679  -0.668  -0.666

 Beta MOs
 -- Occupied --
-26.384 -26.383 -26.374 -26.356 -11.605  -1.817  -1.697  -1.683
 -1.655  -1.006  -0.896  -0.892  -0.885  -0.761  -0.759  -0.713
 -0.707  -0.693  -0.679  -0.668  -0.666

          Ground-State Mulliken Net Atomic Charges

     Atom                 Charge (a.u.)    Spin (a.u.)
  --------------------------------------------------------
      1 C                     1.307759       0.000000
      2 F                    -0.303498       0.000000
      3 F                    -0.329673       0.000000
      4 F                    -0.367828       0.000000
      5 F                    -0.306760       0.000000
  --------------------------------------------------------
  Sum of atomic charges =     0.000000

                    Cartesian Multipole Moments
 -----------------------------------------------------------------
    Charge (ESU x 10^10)
                 0.0000
    Dipole Moment (Debye)
         X       0.2207      Y       0.2793      Z      -0.2335
       Tot       0.4257
    Quadrupole Moments (Debye-Ang)
        XX     -25.1009     XY       0.2482     YY     -23.8412
        XZ       0.2263     YZ      -0.4952     ZZ     -24.8402

 Total job time:  1942.42s(wall), 3186.45s(cpu)
        *  Thank you very much for using Q-Chem.  Have a nice day.  *
