 Q-Chem 4.3, Q-Chem, Inc., Pleasanton, CA (2015)
 Q-Chem 4.3.0 for Intel X86 Linux

User input:
--------------------------------------------------------------
$comment
XAS calculation for the 2b valence excited for water using cvs-adc(2)-x + 6-311+G* basis set
job 1 - determination of HF orbitals
$end

$molecule
0 1
6  -0.438917  2.94653  -0.259771
9  0.67812  2.461312  -0.072106
9  -1.109822  3.175033  0.765638
9  -1.456048  0.76689  0.70841
9  -1.05998  2.607432  -1.239656
$end

$rem
jobtype      sp
sym_ignore true
exchange     hf
basis        6-31G*
unrestricted true
$end

--------------------------------------------------------------

   12    -435.3551808006      4.50E-06 Convergence criterion met
 Total energy in the final basis set = -435.3551808006
 Total job time:  3.27s(wall), 13.04s(cpu)
        *  Thank you very much for using Q-Chem.  Have a nice day.  *
 Q-Chem 4.3, Q-Chem, Inc., Pleasanton, CA (2015)
 Q-Chem 4.3.0 for Intel X86 Linux

User input:
--------------------------------------------------------------

$comment
job3 - cvs-adc(2) calculation
$end

$molecule
read
$end

$rem
mem_total 3000
mem_static 1500
sym_ignore true
scf_guess read
method cvs-adc(2)
basis 6-31G*
ee_singlets 20
cc_rest_occ 5                  !only excitations from the lowest N orbitals
unrestricted  true
max_scf_cycles 200
$end
--------------------------------------------------------------

             Standard Nuclear Orientation (Angstroms)
    I     Atom           X                Y                Z
 ----------------------------------------------------------------
    1      C      -0.4389170000     2.9465300000    -0.2597710000
    2      F       0.6781200000     2.4613120000    -0.0721060000
    3      F      -1.1098220000     3.1750330000     0.7656380000
    4      F      -1.4560480000     0.7668900000     0.7084100000
    5      F      -1.0599800000     2.6074320000    -1.2396560000
 ----------------------------------------------------------------

    8    -435.3551808246      7.23E-09 Convergence criterion met
 Total energy in the final basis set = -435.3551808246
  Term symbol:  2 (-) A                                     R^2 =  5.33335e-14
  Excitation energy:                                             293.460628 eV
  Term symbol:  3 (-) A                                     R^2 =  4.91738e-14
  Excitation energy:                                             295.279352 eV
  Term symbol:  4 (-) A                                     R^2 =  9.54014e-14
  Excitation energy:                                             304.191853 eV
  Term symbol:  5 (-) A                                     R^2 =  1.05764e-13
  Excitation energy:                                             304.437634 eV
  Term symbol:  6 (-) A                                     R^2 =  1.14813e-13
  Excitation energy:                                             305.349259 eV
  Term symbol:  7 (-) A                                     R^2 =  1.26494e-13
  Excitation energy:                                             306.139935 eV
  Term symbol:  8 (-) A                                     R^2 =  1.35053e-13
  Excitation energy:                                             306.493568 eV
  Term symbol:  9 (-) A                                     R^2 =  1.28815e-13
  Excitation energy:                                             307.377447 eV
  Term symbol:  10 (-) A                                    R^2 =  2.12542e-13
  Excitation energy:                                             312.338008 eV
  Excited state 10 (A)                                             [converged]
  Term symbol:  11 (-) A                                    R^2 =  3.16256e-13
  Excitation energy:                                             313.891461 eV
  Excited state 11 (A)                                             [converged]
  Term symbol:  12 (-) A                                    R^2 =  2.35913e-13
  Excitation energy:                                             314.106330 eV
  Excited state 12 (A)                                             [converged]
  Term symbol:  13 (-) A                                    R^2 =  4.48794e-13
  Excitation energy:                                             314.326311 eV
  Excited state 13 (A)                                             [converged]
  Term symbol:  14 (-) A                                    R^2 =  1.07481e-12
  Excitation energy:                                             314.583056 eV
  Excited state 14 (A)                                             [converged]
  Term symbol:  15 (-) A                                    R^2 =  7.88691e-13
  Excitation energy:                                             314.824111 eV
  Excited state 15 (A)                                             [converged]
  Term symbol:  16 (-) A                                    R^2 =  4.47036e-11
  Excitation energy:                                             318.299949 eV
  Excited state 16 (A)                                             [converged]
  Term symbol:  17 (-) A                                    R^2 =  1.44134e-12
  Excitation energy:                                             318.959038 eV
  Excited state 17 (A)                                             [converged]
  Term symbol:  18 (-) A                                    R^2 =  4.65619e-08
  Excitation energy:                                             332.008892 eV
  Excited state 18 (A)                                         [not converged]
  Term symbol:  19 (-) A                                    R^2 =  1.77760e-06
  Excitation energy:                                             332.173004 eV
  Excited state 19 (A)                                         [not converged]
  Term symbol:  20 (-) A                                    R^2 =  1.08668e-05
  Excitation energy:                                             332.316430 eV
  Excited state 20 (A)                                         [not converged]
  Term symbol:  21 (-) A                                    R^2 =  8.87716e-05
  Excitation energy:                                             332.439837 eV

                    Orbital Energies (a.u.)
 --------------------------------------------------------------

 Alpha MOs
 -- Occupied --
-26.549 -26.543 -26.521 -25.950 -11.748  -1.960  -1.862  -1.832
 -1.212  -1.122  -1.036  -1.027  -0.974  -0.866  -0.863  -0.843
 -0.818  -0.811  -0.320  -0.318  -0.317

 Beta MOs
 -- Occupied --
-26.549 -26.543 -26.521 -25.950 -11.748  -1.960  -1.862  -1.832
 -1.212  -1.122  -1.036  -1.027  -0.974  -0.866  -0.863  -0.843
 -0.818  -0.811  -0.320  -0.318  -0.317

          Ground-State Mulliken Net Atomic Charges

     Atom                 Charge (a.u.)    Spin (a.u.)
  --------------------------------------------------------
      1 C                     1.170347       0.000000
      2 F                    -0.112267       0.000000
      3 F                    -0.093549       0.000000
      4 F                    -0.889243       0.000000
      5 F                    -0.075288       0.000000
  --------------------------------------------------------
  Sum of atomic charges =     0.000000

                    Cartesian Multipole Moments
 -----------------------------------------------------------------
    Charge (ESU x 10^10)
                 0.0000
    Dipole Moment (Debye)
         X       4.2446      Y       9.3270      Z      -4.2027
       Tot      11.0758
    Quadrupole Moments (Debye-Ang)
        XX     -30.6495     XY      -0.6178     YY      12.9404
        XZ       4.8047     YZ      -6.1993     ZZ     -24.2603

 Total job time:  2212.59s(wall), 3569.65s(cpu)
        *  Thank you very much for using Q-Chem.  Have a nice day.  *
