 Q-Chem 4.3, Q-Chem, Inc., Pleasanton, CA (2015)
 Q-Chem 4.3.0 for Intel X86 Linux

User input:
--------------------------------------------------------------
$comment
XAS calculation for the 2b valence excited for water using cvs-adc(2)-x + 6-311+G* basis set
job 1 - determination of HF orbitals
$end

$molecule
0 1
6  -0.566028  2.711198  -0.159775
9  0.668115  2.552168  -0.088815
9  -1.059648  3.45319  0.700577
9  -1.447624  0.388671  0.775016
9  -1.040644  2.775455  -1.287877
$end

$rem
jobtype      sp
sym_ignore true
exchange     hf
basis        6-31G*
unrestricted true
$end

--------------------------------------------------------------

    9    -435.3961049864      8.52E-06 Convergence criterion met
 Total energy in the final basis set = -435.3961049864
 Total job time:  2.57s(wall), 9.78s(cpu)
        *  Thank you very much for using Q-Chem.  Have a nice day.  *
 Q-Chem 4.3, Q-Chem, Inc., Pleasanton, CA (2015)
 Q-Chem 4.3.0 for Intel X86 Linux

User input:
--------------------------------------------------------------

$comment
job3 - cvs-adc(2) calculation
$end

$molecule
read
$end

$rem
mem_total 3000
mem_static 1500
sym_ignore true
scf_guess read
method cvs-adc(2)
basis 6-31G*
ee_singlets 20
cc_rest_occ 5                  !only excitations from the lowest N orbitals
unrestricted  true
max_scf_cycles 200
$end
--------------------------------------------------------------

             Standard Nuclear Orientation (Angstroms)
    I     Atom           X                Y                Z
 ----------------------------------------------------------------
    1      C      -0.5660280000     2.7111980000    -0.1597750000
    2      F       0.6681150000     2.5521680000    -0.0888150000
    3      F      -1.0596480000     3.4531900000     0.7005770000
    4      F      -1.4476240000     0.3886710000     0.7750160000
    5      F      -1.0406440000     2.7754550000    -1.2878770000
 ----------------------------------------------------------------

    8    -435.3961054297      3.20E-09 Convergence criterion met
 Total energy in the final basis set = -435.3961054297
  Term symbol:  2 (-) A                                     R^2 =  3.10844e-13
  Excitation energy:                                             294.493762 eV
  Term symbol:  3 (-) A                                     R^2 =  3.86061e-13
  Excitation energy:                                             296.445382 eV
  Term symbol:  4 (-) A                                     R^2 =  6.68783e-13
  Excitation energy:                                             303.728233 eV
  Term symbol:  5 (-) A                                     R^2 =  7.20156e-14
  Excitation energy:                                             304.251321 eV
  Term symbol:  6 (-) A                                     R^2 =  5.44278e-14
  Excitation energy:                                             304.704649 eV
  Term symbol:  7 (-) A                                     R^2 =  1.11833e-13
  Excitation energy:                                             305.540287 eV
  Term symbol:  8 (-) A                                     R^2 =  6.75632e-14
  Excitation energy:                                             306.353348 eV
  Term symbol:  9 (-) A                                     R^2 =  9.12413e-14
  Excitation energy:                                             306.804465 eV
  Term symbol:  10 (-) A                                    R^2 =  4.88345e-13
  Excitation energy:                                             312.981145 eV
  Excited state 10 (A)                                             [converged]
  Term symbol:  11 (-) A                                    R^2 =  4.37783e-13
  Excitation energy:                                             314.041500 eV
  Excited state 11 (A)                                             [converged]
  Term symbol:  12 (-) A                                    R^2 =  3.14633e-13
  Excitation energy:                                             314.338496 eV
  Excited state 12 (A)                                             [converged]
  Term symbol:  13 (-) A                                    R^2 =  4.16340e-13
  Excitation energy:                                             314.399527 eV
  Excited state 13 (A)                                             [converged]
  Term symbol:  14 (-) A                                    R^2 =  8.90451e-13
  Excitation energy:                                             314.788502 eV
  Excited state 14 (A)                                             [converged]
  Term symbol:  15 (-) A                                    R^2 =  4.12946e-13
  Excitation energy:                                             314.876916 eV
  Excited state 15 (A)                                             [converged]
  Term symbol:  16 (-) A                                    R^2 =  3.89807e-13
  Excitation energy:                                             315.742699 eV
  Excited state 16 (A)                                             [converged]
  Term symbol:  17 (-) A                                    R^2 =  1.03099e-11
  Excitation energy:                                             316.829172 eV
  Excited state 17 (A)                                         [not converged]
  Term symbol:  18 (-) A                                    R^2 =  3.36596e-06
  Excitation energy:                                             329.058588 eV
  Excited state 18 (A)                                             [converged]
  Term symbol:  19 (-) A                                    R^2 =  9.20460e-09
  Excitation energy:                                             329.105151 eV
  Excited state 19 (A)                                         [not converged]
  Term symbol:  20 (-) A                                    R^2 =  1.27938e-04
  Excitation energy:                                             331.664448 eV
  Excited state 20 (A)                                         [not converged]
  Term symbol:  21 (-) A                                    R^2 =  1.21434e-04
  Excitation energy:                                             331.814823 eV

                    Orbital Energies (a.u.)
 --------------------------------------------------------------

 Alpha MOs
 -- Occupied --
-26.522 -26.512 -26.511 -26.080 -11.727  -1.938  -1.835  -1.822
 -1.307  -1.106  -1.014  -1.011  -0.955  -0.854  -0.852  -0.824
 -0.818  -0.798  -0.422  -0.422  -0.373

 Beta MOs
 -- Occupied --
-26.522 -26.512 -26.511 -26.080 -11.727  -1.938  -1.835  -1.822
 -1.307  -1.106  -1.014  -1.011  -0.955  -0.854  -0.852  -0.824
 -0.818  -0.798  -0.422  -0.422  -0.373

          Ground-State Mulliken Net Atomic Charges

     Atom                 Charge (a.u.)    Spin (a.u.)
  --------------------------------------------------------
      1 C                     1.115952       0.000000
      2 F                    -0.161505       0.000000
      3 F                    -0.150905       0.000000
      4 F                    -0.666455       0.000000
      5 F                    -0.137087       0.000000
  --------------------------------------------------------
  Sum of atomic charges =     0.000000

                    Cartesian Multipole Moments
 -----------------------------------------------------------------
    Charge (ESU x 10^10)
                 0.0000
    Dipole Moment (Debye)
         X       2.6868      Y       7.2653      Z      -2.9999
       Tot       8.3068
    Quadrupole Moments (Debye-Ang)
        XX     -28.6927     XY      -2.9706     YY      -0.0678
        XZ       3.7763     YZ      -2.7572     ZZ     -24.8978

 Total job time:  2162.83s(wall), 3485.94s(cpu)
        *  Thank you very much for using Q-Chem.  Have a nice day.  *
