 Q-Chem 4.3, Q-Chem, Inc., Pleasanton, CA (2015)
 Q-Chem 4.3.0 for Intel X86 Linux

User input:
--------------------------------------------------------------
$comment
XAS calculation for the 2b valence excited for water using cvs-adc(2)-x + 6-311+G* basis set
job 1 - determination of HF orbitals
$end

$molecule
0 1
6  -0.515688  2.654238  -0.174437
9  0.84873  2.854716  -0.229315
9  -1.02252  3.169675  0.70615
9  -1.835875  0.438005  0.990183
9  -0.931657  2.812636  -1.35513
$end

$rem
jobtype      sp
sym_ignore true
exchange     hf
basis        6-31G*
unrestricted true
$end

--------------------------------------------------------------

   14    -435.3228101182      3.15E-06 Convergence criterion met
 Total energy in the final basis set = -435.3228101182
 Total job time:  3.69s(wall), 14.95s(cpu)
        *  Thank you very much for using Q-Chem.  Have a nice day.  *
 Q-Chem 4.3, Q-Chem, Inc., Pleasanton, CA (2015)
 Q-Chem 4.3.0 for Intel X86 Linux

User input:
--------------------------------------------------------------

$comment
job3 - cvs-adc(2) calculation
$end

$molecule
read
$end

$rem
mem_total 3000
mem_static 1500
sym_ignore true
scf_guess read
method cvs-adc(2)
basis 6-31G*
ee_singlets 20
cc_rest_occ 5                  !only excitations from the lowest N orbitals
unrestricted  true
max_scf_cycles 200
$end
--------------------------------------------------------------

             Standard Nuclear Orientation (Angstroms)
    I     Atom           X                Y                Z
 ----------------------------------------------------------------
    1      C      -0.5156880000     2.6542380000    -0.1744370000
    2      F       0.8487300000     2.8547160000    -0.2293150000
    3      F      -1.0225200000     3.1696750000     0.7061500000
    4      F      -1.8358750000     0.4380050000     0.9901830000
    5      F      -0.9316570000     2.8126360000    -1.3551300000
 ----------------------------------------------------------------

    7    -435.3228100314      5.87E-09 Convergence criterion met
 Total energy in the final basis set = -435.3228100314
  Term symbol:  2 (-) A                                     R^2 =  5.37283e-14
  Excitation energy:                                             294.034390 eV
  Term symbol:  3 (-) A                                     R^2 =  5.79782e-14
  Excitation energy:                                             295.886347 eV
  Term symbol:  4 (-) A                                     R^2 =  3.23539e-14
  Excitation energy:                                             300.750201 eV
  Term symbol:  5 (-) A                                     R^2 =  7.44274e-14
  Excitation energy:                                             302.881778 eV
  Term symbol:  6 (-) A                                     R^2 =  9.18122e-14
  Excitation energy:                                             303.535397 eV
  Term symbol:  7 (-) A                                     R^2 =  1.85376e-13
  Excitation energy:                                             305.572741 eV
  Term symbol:  8 (-) A                                     R^2 =  2.81343e-14
  Excitation energy:                                             307.185864 eV
  Term symbol:  9 (-) A                                     R^2 =  8.35437e-14
  Excitation energy:                                             308.616122 eV
  Term symbol:  10 (-) A                                    R^2 =  1.17425e-13
  Excitation energy:                                             313.341591 eV
  Excited state 10 (A)                                             [converged]
  Term symbol:  11 (-) A                                    R^2 =  8.74594e-14
  Excitation energy:                                             313.907750 eV
  Excited state 11 (A)                                             [converged]
  Term symbol:  12 (-) A                                    R^2 =  1.10172e-13
  Excitation energy:                                             314.023628 eV
  Excited state 12 (A)                                             [converged]
  Term symbol:  13 (-) A                                    R^2 =  2.02079e-13
  Excitation energy:                                             314.066742 eV
  Excited state 13 (A)                                             [converged]
  Term symbol:  14 (-) A                                    R^2 =  7.17863e-14
  Excitation energy:                                             314.563709 eV
  Excited state 14 (A)                                             [converged]
  Term symbol:  15 (-) A                                    R^2 =  4.19555e-13
  Excitation energy:                                             314.866928 eV
  Excited state 15 (A)                                             [converged]
  Term symbol:  16 (-) A                                    R^2 =  5.96370e-13
  Excitation energy:                                             315.080516 eV
  Excited state 16 (A)                                             [converged]
  Term symbol:  17 (-) A                                    R^2 =  2.85662e-13
  Excitation energy:                                             316.342549 eV
  Excited state 17 (A)                                             [converged]
  Term symbol:  18 (-) A                                    R^2 =  1.33566e-12
  Excitation energy:                                             325.665439 eV
  Excited state 18 (A)                                             [converged]
  Term symbol:  19 (-) A                                    R^2 =  1.53974e-12
  Excitation energy:                                             325.728733 eV
  Excited state 19 (A)                                             [converged]
  Term symbol:  20 (-) A                                    R^2 =  3.81683e-07
  Excitation energy:                                             330.437659 eV
  Excited state 20 (A)                                             [converged]
  Term symbol:  21 (-) A                                    R^2 =  5.75489e-07
  Excitation energy:                                             330.636194 eV

                    Orbital Energies (a.u.)
 --------------------------------------------------------------

 Alpha MOs
 -- Occupied --
-26.558 -26.515 -26.472 -26.083 -11.733  -1.979  -1.847  -1.749
 -1.309  -1.120  -1.023  -1.005  -0.969  -0.860  -0.834  -0.817
 -0.787  -0.774  -0.425  -0.425  -0.362

 Beta MOs
 -- Occupied --
-26.558 -26.515 -26.472 -26.083 -11.733  -1.979  -1.847  -1.749
 -1.309  -1.120  -1.023  -1.005  -0.969  -0.860  -0.834  -0.817
 -0.787  -0.774  -0.425  -0.425  -0.362

          Ground-State Mulliken Net Atomic Charges

     Atom                 Charge (a.u.)    Spin (a.u.)
  --------------------------------------------------------
      1 C                     1.094218       0.000000
      2 F                    -0.285886       0.000000
      3 F                     0.014700       0.000000
      4 F                    -0.652566       0.000000
      5 F                    -0.170466       0.000000
  --------------------------------------------------------
  Sum of atomic charges =     0.000000

                    Cartesian Multipole Moments
 -----------------------------------------------------------------
    Charge (ESU x 10^10)
                 0.0000
    Dipole Moment (Debye)
         X       3.1983      Y       6.7877      Z      -3.0486
       Tot       8.0992
    Quadrupole Moments (Debye-Ang)
        XX     -32.6099     XY      -4.0958     YY      -1.4940
        XZ       5.4224     YZ      -1.3498     ZZ     -26.0075

 Total job time:  1950.78s(wall), 3188.36s(cpu)
        *  Thank you very much for using Q-Chem.  Have a nice day.  *
