 Q-Chem 4.3, Q-Chem, Inc., Pleasanton, CA (2015)
 Q-Chem 4.3.0 for Intel X86 Linux

User input:
--------------------------------------------------------------
$comment
XAS calculation for the 2b valence excited for water using cvs-adc(2)-x + 6-311+G* basis set
job 1 - determination of HF orbitals
$end

$molecule
0 1
6  -0.476883  2.681896  -0.220299
9  0.802794  2.73987  -0.195972
9  -1.0319  3.320966  0.717031
9  -1.750818  0.290604  0.97028
9  -0.941544  2.824068  -1.353811
$end

$rem
jobtype      sp
sym_ignore true
exchange     hf
basis        6-31G*
unrestricted true
$end

--------------------------------------------------------------

   12    -435.3444529691      5.21E-06 Convergence criterion met
 Total energy in the final basis set = -435.3444529691
 Total job time:  3.24s(wall), 13.17s(cpu)
        *  Thank you very much for using Q-Chem.  Have a nice day.  *
 Q-Chem 4.3, Q-Chem, Inc., Pleasanton, CA (2015)
 Q-Chem 4.3.0 for Intel X86 Linux

User input:
--------------------------------------------------------------

$comment
job3 - cvs-adc(2) calculation
$end

$molecule
read
$end

$rem
mem_total 3000
mem_static 1500
sym_ignore true
scf_guess read
method cvs-adc(2)
basis 6-31G*
ee_singlets 20
cc_rest_occ 5                  !only excitations from the lowest N orbitals
unrestricted  true
max_scf_cycles 200
$end
--------------------------------------------------------------

             Standard Nuclear Orientation (Angstroms)
    I     Atom           X                Y                Z
 ----------------------------------------------------------------
    1      C      -0.4768830000     2.6818960000    -0.2202990000
    2      F       0.8027940000     2.7398700000    -0.1959720000
    3      F      -1.0319000000     3.3209660000     0.7170310000
    4      F      -1.7508180000     0.2906040000     0.9702800000
    5      F      -0.9415440000     2.8240680000    -1.3538110000
 ----------------------------------------------------------------

    9    -435.3444531161      5.88E-09 Convergence criterion met
 Total energy in the final basis set = -435.3444531161
  Term symbol:  2 (-) A                                     R^2 =  3.06968e-13
  Excitation energy:                                             294.108328 eV
  Term symbol:  3 (-) A                                     R^2 =  6.51476e-13
  Excitation energy:                                             295.939308 eV
  Term symbol:  4 (-) A                                     R^2 =  2.10912e-13
  Excitation energy:                                             302.787081 eV
  Term symbol:  5 (-) A                                     R^2 =  4.99282e-13
  Excitation energy:                                             303.365043 eV
  Term symbol:  6 (-) A                                     R^2 =  2.55343e-13
  Excitation energy:                                             304.149636 eV
  Term symbol:  7 (-) A                                     R^2 =  1.27642e-13
  Excitation energy:                                             304.857047 eV
  Term symbol:  8 (-) A                                     R^2 =  2.10704e-13
  Excitation energy:                                             305.321684 eV
  Term symbol:  9 (-) A                                     R^2 =  9.13437e-14
  Excitation energy:                                             306.127578 eV
  Term symbol:  10 (-) A                                    R^2 =  2.98320e-13
  Excitation energy:                                             313.186783 eV
  Excited state 10 (A)                                             [converged]
  Term symbol:  11 (-) A                                    R^2 =  5.09517e-13
  Excitation energy:                                             313.560388 eV
  Excited state 11 (A)                                             [converged]
  Term symbol:  12 (-) A                                    R^2 =  2.17382e-13
  Excitation energy:                                             313.915827 eV
  Excited state 12 (A)                                             [converged]
  Term symbol:  13 (-) A                                    R^2 =  1.11023e-13
  Excitation energy:                                             313.946194 eV
  Excited state 13 (A)                                             [converged]
  Term symbol:  14 (-) A                                    R^2 =  1.33407e-13
  Excitation energy:                                             314.339657 eV
  Excited state 14 (A)                                             [converged]
  Term symbol:  15 (-) A                                    R^2 =  3.72736e-13
  Excitation energy:                                             314.458222 eV
  Excited state 15 (A)                                             [converged]
  Term symbol:  16 (-) A                                    R^2 =  6.50595e-14
  Excitation energy:                                             314.475864 eV
  Excited state 16 (A)                                             [converged]
  Term symbol:  17 (-) A                                    R^2 =  8.29455e-13
  Excitation energy:                                             315.467630 eV
  Excited state 17 (A)                                             [converged]
  Term symbol:  18 (-) A                                    R^2 =  6.51049e-11
  Excitation energy:                                             325.348688 eV
  Excited state 18 (A)                                             [converged]
  Term symbol:  19 (-) A                                    R^2 =  7.45421e-12
  Excitation energy:                                             325.419947 eV
  Excited state 19 (A)                                         [not converged]
  Term symbol:  20 (-) A                                    R^2 =  2.07758e-04
  Excitation energy:                                             331.343977 eV
  Excited state 20 (A)                                         [not converged]
  Term symbol:  21 (-) A                                    R^2 =  4.57660e-04
  Excitation energy:                                             331.479041 eV

                    Orbital Energies (a.u.)
 --------------------------------------------------------------

 Alpha MOs
 -- Occupied --
-26.533 -26.515 -26.511 -26.075 -11.734  -1.930  -1.830  -1.809
 -1.299  -1.109  -1.008  -1.004  -0.952  -0.856  -0.848  -0.825
 -0.815  -0.799  -0.416  -0.416  -0.349

 Beta MOs
 -- Occupied --
-26.533 -26.515 -26.511 -26.075 -11.734  -1.930  -1.830  -1.809
 -1.299  -1.109  -1.008  -1.004  -0.952  -0.856  -0.848  -0.825
 -0.815  -0.799  -0.416  -0.416  -0.349

          Ground-State Mulliken Net Atomic Charges

     Atom                 Charge (a.u.)    Spin (a.u.)
  --------------------------------------------------------
      1 C                     1.145951       0.000000
      2 F                    -0.196929       0.000000
      3 F                    -0.158073       0.000000
      4 F                    -0.653310       0.000000
      5 F                    -0.137639       0.000000
  --------------------------------------------------------
  Sum of atomic charges =     0.000000

                    Cartesian Multipole Moments
 -----------------------------------------------------------------
    Charge (ESU x 10^10)
                 0.0000
    Dipole Moment (Debye)
         X       3.7495      Y       7.2207      Z      -3.7669
       Tot       8.9658
    Quadrupole Moments (Debye-Ang)
        XX     -31.9898     XY      -2.5577     YY      -1.4169
        XZ       5.5651     YZ      -3.1836     ZZ     -25.8440

 Total job time:  2052.25s(wall), 3358.12s(cpu)
        *  Thank you very much for using Q-Chem.  Have a nice day.  *
