 Q-Chem 4.3, Q-Chem, Inc., Pleasanton, CA (2015)
 Q-Chem 4.3.0 for Intel X86 Linux

User input:
--------------------------------------------------------------
$comment
XAS calculation for the 2b valence excited for water using cvs-adc(2)-x + 6-311+G* basis set
job 1 - determination of HF orbitals
$end

$molecule
0 1
6  -0.498052  2.742248  -0.235217
9  0.793676  2.748611  -0.18558
9  -1.055275  3.141435  0.723846
9  -1.722879  0.581401  0.899332
9  -0.962145  2.739022  -1.287604
$end

$rem
jobtype      sp
sym_ignore true
exchange     hf
basis        6-31G*
unrestricted true
$end

--------------------------------------------------------------

   10    -435.3679813175      6.99E-06 Convergence criterion met
 Total energy in the final basis set = -435.3679813175
 Total job time:  2.78s(wall), 11.85s(cpu)
        *  Thank you very much for using Q-Chem.  Have a nice day.  *
 Q-Chem 4.3, Q-Chem, Inc., Pleasanton, CA (2015)
 Q-Chem 4.3.0 for Intel X86 Linux

User input:
--------------------------------------------------------------

$comment
job3 - cvs-adc(2) calculation
$end

$molecule
read
$end

$rem
mem_total 3000
mem_static 1500
sym_ignore true
scf_guess read
method cvs-adc(2)
basis 6-31G*
ee_singlets 20
cc_rest_occ 5                  !only excitations from the lowest N orbitals
unrestricted  true
max_scf_cycles 200
$end
--------------------------------------------------------------

             Standard Nuclear Orientation (Angstroms)
    I     Atom           X                Y                Z
 ----------------------------------------------------------------
    1      C      -0.4980520000     2.7422480000    -0.2352170000
    2      F       0.7936760000     2.7486110000    -0.1855800000
    3      F      -1.0552750000     3.1414350000     0.7238460000
    4      F      -1.7228790000     0.5814010000     0.8993320000
    5      F      -0.9621450000     2.7390220000    -1.2876040000
 ----------------------------------------------------------------

    8    -435.3679815945      4.25E-09 Convergence criterion met
 Total energy in the final basis set = -435.3679815945
  Term symbol:  2 (-) A                                     R^2 =  5.78685e-11
  Excitation energy:                                             294.783933 eV
  Term symbol:  3 (-) A                                     R^2 =  2.04622e-10
  Excitation energy:                                             296.761258 eV
  Term symbol:  4 (-) A                                     R^2 =  1.64639e-12
  Excitation energy:                                             302.670296 eV
  Term symbol:  5 (-) A                                     R^2 =  3.72613e-11
  Excitation energy:                                             304.674819 eV
  Term symbol:  6 (-) A                                     R^2 =  4.67562e-12
  Excitation energy:                                             305.572667 eV
  Term symbol:  7 (-) A                                     R^2 =  1.74495e-11
  Excitation energy:                                             307.227874 eV
  Term symbol:  8 (-) A                                     R^2 =  3.69103e-11
  Excitation energy:                                             307.852711 eV
  Term symbol:  9 (-) A                                     R^2 =  6.10706e-11
  Excitation energy:                                             309.871470 eV
  Term symbol:  10 (-) A                                    R^2 =  7.48010e-11
  Excitation energy:                                             313.062495 eV
  Excited state 10 (A)                                             [converged]
  Term symbol:  11 (-) A                                    R^2 =  8.79090e-11
  Excitation energy:                                             314.247697 eV
  Excited state 11 (A)                                             [converged]
  Term symbol:  12 (-) A                                    R^2 =  1.03733e-10
  Excitation energy:                                             314.443441 eV
  Excited state 12 (A)                                             [converged]
  Term symbol:  13 (-) A                                    R^2 =  9.55316e-11
  Excitation energy:                                             314.942547 eV
  Excited state 13 (A)                                             [converged]
  Term symbol:  14 (-) A                                    R^2 =  4.68367e-11
  Excitation energy:                                             315.069089 eV
  Excited state 14 (A)                                             [converged]
  Term symbol:  15 (-) A                                    R^2 =  4.55819e-12
  Excitation energy:                                             315.516884 eV
  Excited state 15 (A)                                             [converged]
  Term symbol:  16 (-) A                                    R^2 =  1.61024e-12
  Excitation energy:                                             316.505308 eV
  Excited state 16 (A)                                             [converged]
  Term symbol:  17 (-) A                                    R^2 =  3.64098e-11
  Excitation energy:                                             317.541124 eV
  Excited state 17 (A)                                         [not converged]
  Term symbol:  18 (-) A                                    R^2 =  8.96025e-03
  Excitation energy:                                             329.682465 eV
  Excited state 18 (A)                                         [not converged]
  Term symbol:  19 (-) A                                    R^2 =  3.09389e-03
  Excitation energy:                                             329.694527 eV
  Excited state 19 (A)                                         [not converged]
  Term symbol:  20 (-) A                                    R^2 =  8.40272e-02
  Excitation energy:                                             330.348985 eV
  Excited state 20 (A)                                             [converged]
  Term symbol:  21 (-) A                                    R^2 =  3.25013e-08
  Excitation energy:                                             331.143527 eV

                    Orbital Energies (a.u.)
 --------------------------------------------------------------

 Alpha MOs
 -- Occupied --
-26.572 -26.538 -26.514 -26.000 -11.745  -2.004  -1.902  -1.822
 -1.246  -1.139  -1.060  -1.049  -1.004  -0.889  -0.866  -0.860
 -0.829  -0.814  -0.358  -0.358  -0.334

 Beta MOs
 -- Occupied --
-26.572 -26.538 -26.514 -26.000 -11.745  -2.004  -1.902  -1.822
 -1.246  -1.139  -1.060  -1.049  -1.004  -0.889  -0.866  -0.860
 -0.829  -0.814  -0.358  -0.358  -0.334

          Ground-State Mulliken Net Atomic Charges

     Atom                 Charge (a.u.)    Spin (a.u.)
  --------------------------------------------------------
      1 C                     1.086833       0.000000
      2 F                    -0.216407       0.000000
      3 F                    -0.042163       0.000000
      4 F                    -0.802037       0.000000
      5 F                    -0.026226       0.000000
  --------------------------------------------------------
  Sum of atomic charges =     0.000000

                    Cartesian Multipole Moments
 -----------------------------------------------------------------
    Charge (ESU x 10^10)
                 0.0000
    Dipole Moment (Debye)
         X       4.0201      Y       8.2062      Z      -4.4121
       Tot      10.1474
    Quadrupole Moments (Debye-Ang)
        XX     -32.8410     XY      -2.9987     YY       5.1158
        XZ       6.4116     YZ      -4.8862     ZZ     -25.0730

 Total job time:  2083.56s(wall), 3419.98s(cpu)
        *  Thank you very much for using Q-Chem.  Have a nice day.  *
