 Q-Chem 4.3, Q-Chem, Inc., Pleasanton, CA (2015)
 Q-Chem 4.3.0 for Intel X86 Linux

User input:
--------------------------------------------------------------
$comment
XAS calculation for the 2b valence excited for water using cvs-adc(2)-x + 6-311+G* basis set
job 1 - determination of HF orbitals
$end

$molecule
0 1
6  -0.69562  2.390503  -0.018043
9  0.60595  2.351289  -0.000675
9  -1.138316  3.286519  0.79196
9  -1.146652  1.186885  0.434289
9  -1.133527  2.555932  -1.207281
$end

$rem
jobtype      sp
sym_ignore true
exchange     hf
basis        6-31G*
unrestricted true
$end

--------------------------------------------------------------

    8    -435.6411902731      3.44E-06 Convergence criterion met
 Total energy in the final basis set = -435.6411902731
 Total job time:  2.24s(wall), 10.04s(cpu)
        *  Thank you very much for using Q-Chem.  Have a nice day.  *
 Q-Chem 4.3, Q-Chem, Inc., Pleasanton, CA (2015)
 Q-Chem 4.3.0 for Intel X86 Linux

User input:
--------------------------------------------------------------

$comment
job3 - cvs-adc(2) calculation
$end

$molecule
read
$end

$rem
mem_total 3000
mem_static 1500
sym_ignore true
scf_guess read
method cvs-adc(2)
basis 6-31G*
ee_singlets 20
cc_rest_occ 5                  !only excitations from the lowest N orbitals
unrestricted  true
max_scf_cycles 200
$end
--------------------------------------------------------------

             Standard Nuclear Orientation (Angstroms)
    I     Atom           X                Y                Z
 ----------------------------------------------------------------
    1      C      -0.6956200000     2.3905030000    -0.0180430000
    2      F       0.6059500000     2.3512890000    -0.0006750000
    3      F      -1.1383160000     3.2865190000     0.7919600000
    4      F      -1.1466520000     1.1868850000     0.4342890000
    5      F      -1.1335270000     2.5559320000    -1.2072810000
 ----------------------------------------------------------------

    5    -435.6411902572      3.47E-09 Convergence criterion met
 Total energy in the final basis set = -435.6411902572
  Term symbol:  2 (-) A                                     R^2 =  5.70941e-14
  Excitation energy:                                             300.418361 eV
  Term symbol:  3 (-) A                                     R^2 =  1.32221e-13
  Excitation energy:                                             301.830001 eV
  Term symbol:  4 (-) A                                     R^2 =  9.03370e-14
  Excitation energy:                                             302.289743 eV
  Term symbol:  5 (-) A                                     R^2 =  8.15590e-14
  Excitation energy:                                             302.555929 eV
  Term symbol:  6 (-) A                                     R^2 =  1.28599e-13
  Excitation energy:                                             303.827543 eV
  Term symbol:  7 (-) A                                     R^2 =  1.42272e-13
  Excitation energy:                                             303.988218 eV
  Term symbol:  8 (-) A                                     R^2 =  1.86936e-13
  Excitation energy:                                             304.448102 eV
  Term symbol:  9 (-) A                                     R^2 =  8.80460e-14
  Excitation energy:                                             306.410619 eV
  Term symbol:  10 (-) A                                    R^2 =  3.80675e-13
  Excitation energy:                                             313.038405 eV
  Excited state 10 (A)                                             [converged]
  Term symbol:  11 (-) A                                    R^2 =  1.25313e-13
  Excitation energy:                                             313.708260 eV
  Excited state 11 (A)                                             [converged]
  Term symbol:  12 (-) A                                    R^2 =  7.09200e-13
  Excitation energy:                                             313.719434 eV
  Excited state 12 (A)                                             [converged]
  Term symbol:  13 (-) A                                    R^2 =  2.31153e-13
  Excitation energy:                                             313.750224 eV
  Excited state 13 (A)                                             [converged]
  Term symbol:  14 (-) A                                    R^2 =  5.54935e-13
  Excitation energy:                                             314.017100 eV
  Excited state 14 (A)                                             [converged]
  Term symbol:  15 (-) A                                    R^2 =  1.39510e-13
  Excitation energy:                                             314.103597 eV
  Excited state 15 (A)                                             [converged]
  Term symbol:  16 (-) A                                    R^2 =  3.99464e-13
  Excitation energy:                                             314.155433 eV
  Excited state 16 (A)                                             [converged]
  Term symbol:  17 (-) A                                    R^2 =  5.77919e-13
  Excitation energy:                                             314.507120 eV
  Excited state 17 (A)                                             [converged]
  Term symbol:  18 (-) A                                    R^2 =  2.64165e-07
  Excitation energy:                                             330.170173 eV
  Excited state 18 (A)                                             [converged]
  Term symbol:  19 (-) A                                    R^2 =  3.23814e-08
  Excitation energy:                                             330.193994 eV
  Excited state 19 (A)                                             [converged]
  Term symbol:  20 (-) A                                    R^2 =  8.60650e-07
  Excitation energy:                                             330.201251 eV
  Excited state 20 (A)                                             [converged]
  Term symbol:  21 (-) A                                    R^2 =  2.02729e-07
  Excitation energy:                                             330.225774 eV

                    Orbital Energies (a.u.)
 --------------------------------------------------------------

 Alpha MOs
 -- Occupied --
-26.388 -26.384 -26.378 -26.349 -11.608  -1.814  -1.698  -1.686
 -1.644  -1.006  -0.895  -0.892  -0.881  -0.760  -0.758  -0.714
 -0.709  -0.688  -0.682  -0.665  -0.663

 Beta MOs
 -- Occupied --
-26.388 -26.384 -26.378 -26.349 -11.608  -1.814  -1.698  -1.686
 -1.644  -1.006  -0.895  -0.892  -0.881  -0.760  -0.758  -0.714
 -0.709  -0.688  -0.682  -0.665  -0.663

          Ground-State Mulliken Net Atomic Charges

     Atom                 Charge (a.u.)    Spin (a.u.)
  --------------------------------------------------------
      1 C                     1.318350       0.000000
      2 F                    -0.325433       0.000000
      3 F                    -0.309471       0.000000
      4 F                    -0.383310       0.000000
      5 F                    -0.300136       0.000000
  --------------------------------------------------------
  Sum of atomic charges =     0.000000

                    Cartesian Multipole Moments
 -----------------------------------------------------------------
    Charge (ESU x 10^10)
                 0.0000
    Dipole Moment (Debye)
         X       0.0720      Y       0.5023      Z      -0.2463
       Tot       0.5640
    Quadrupole Moments (Debye-Ang)
        XX     -25.0340     XY      -0.3445     YY     -22.7950
        XZ       0.2573     YZ      -0.4427     ZZ     -24.7914

 Total job time:  1802.61s(wall), 3001.08s(cpu)
        *  Thank you very much for using Q-Chem.  Have a nice day.  *
