 Q-Chem 4.3, Q-Chem, Inc., Pleasanton, CA (2015)
 Q-Chem 4.3.0 for Intel X86 Linux

User input:
--------------------------------------------------------------
$comment
XAS calculation for the 2b valence excited for water using cvs-adc(2)-x + 6-311+G* basis set
job 1 - determination of HF orbitals
$end

$molecule
0 1
6  -0.380674  3.194306  -0.368158
9  0.946967  3.005418  -0.299939
9  -0.947708  3.117373  0.684945
9  -2.192989  -0.012497  1.27509
9  -0.85227  2.854519  -1.426435
$end

$rem
jobtype      sp
sym_ignore true
exchange     hf
basis        6-31G*
unrestricted true
$end

--------------------------------------------------------------

   14    -435.2567956918      3.81E-06 Convergence criterion met
 Total energy in the final basis set = -435.2567956918
 Total job time:  3.60s(wall), 16.49s(cpu)
        *  Thank you very much for using Q-Chem.  Have a nice day.  *
 Q-Chem 4.3, Q-Chem, Inc., Pleasanton, CA (2015)
 Q-Chem 4.3.0 for Intel X86 Linux

User input:
--------------------------------------------------------------

$comment
job3 - cvs-adc(2) calculation
$end

$molecule
read
$end

$rem
mem_total 3000
mem_static 1500
sym_ignore true
scf_guess read
method cvs-adc(2)
basis 6-31G*
ee_singlets 20
cc_rest_occ 5                  !only excitations from the lowest N orbitals
unrestricted  true
max_scf_cycles 200
$end
--------------------------------------------------------------

             Standard Nuclear Orientation (Angstroms)
    I     Atom           X                Y                Z
 ----------------------------------------------------------------
    1      C      -0.3806740000     3.1943060000    -0.3681580000
    2      F       0.9469670000     3.0054180000    -0.2999390000
    3      F      -0.9477080000     3.1173730000     0.6849450000
    4      F      -2.1929890000    -0.0124970000     1.2750900000
    5      F      -0.8522700000     2.8545190000    -1.4264350000
 ----------------------------------------------------------------

   10    -435.2567954475      6.27E-09 Convergence criterion met
 Total energy in the final basis set = -435.2567954475
  Term symbol:  2 (-) A                                     R^2 =  8.28956e-07
  Excitation energy:                                             293.497689 eV
  Term symbol:  3 (-) A                                     R^2 =  3.10690e-07
  Excitation energy:                                             295.362176 eV
  Term symbol:  4 (-) A                                     R^2 =  8.16086e-08
  Excitation energy:                                             301.838049 eV
  Term symbol:  5 (-) A                                     R^2 =  4.95055e-07
  Excitation energy:                                             303.965101 eV
  Term symbol:  6 (-) A                                     R^2 =  2.67407e-07
  Excitation energy:                                             304.223199 eV
  Term symbol:  7 (-) A                                     R^2 =  1.59228e-08
  Excitation energy:                                             305.929167 eV
  Term symbol:  8 (-) A                                     R^2 =  2.77513e-07
  Excitation energy:                                             306.495937 eV
  Term symbol:  9 (-) A                                     R^2 =  1.08480e-07
  Excitation energy:                                             308.536811 eV
  Term symbol:  10 (-) A                                    R^2 =  7.95634e-08
  Excitation energy:                                             313.191736 eV
  Excited state 10 (A)                                             [converged]
  Term symbol:  11 (-) A                                    R^2 =  5.86366e-07
  Excitation energy:                                             314.393642 eV
  Excited state 11 (A)                                             [converged]
  Term symbol:  12 (-) A                                    R^2 =  8.09548e-07
  Excitation energy:                                             314.776654 eV
  Excited state 12 (A)                                             [converged]
  Term symbol:  13 (-) A                                    R^2 =  7.50070e-07
  Excitation energy:                                             314.870423 eV
  Excited state 13 (A)                                         [not converged]
  Term symbol:  14 (-) A                                    R^2 =  1.09104e-06
  Excitation energy:                                             315.222201 eV
  Excited state 14 (A)                                             [converged]
  Term symbol:  15 (-) A                                    R^2 =  7.59668e-07
  Excitation energy:                                             315.233183 eV
  Excited state 15 (A)                                             [converged]
  Term symbol:  16 (-) A                                    R^2 =  5.06918e-08
  Excitation energy:                                             315.422504 eV
  Excited state 16 (A)                                             [converged]
  Term symbol:  17 (-) A                                    R^2 =  5.23610e-07
  Excitation energy:                                             316.221978 eV
  Excited state 17 (A)                                         [not converged]
  Term symbol:  18 (-) A                                    R^2 =  2.01289e-01
  Excitation energy:                                             320.861336 eV
  Excited state 18 (A)                                         [not converged]
  Term symbol:  19 (-) A                                    R^2 =  2.39680e-01
  Excitation energy:                                             321.023545 eV
  Excited state 19 (A)                                         [not converged]
  Term symbol:  20 (-) A                                    R^2 =  6.56557e-05
  Excitation energy:                                             332.190631 eV
  Excited state 20 (A)                                         [not converged]
  Term symbol:  21 (-) A                                    R^2 =  3.86849e-05
  Excitation energy:                                             332.363021 eV

                    Orbital Energies (a.u.)
 --------------------------------------------------------------

 Alpha MOs
 -- Occupied --
-26.639 -26.635 -26.579 -25.833 -11.834  -2.040  -1.961  -1.862
 -1.198  -1.113  -1.103  -1.093  -1.052  -0.950  -0.927  -0.915
 -0.884  -0.877  -0.215  -0.214  -0.214

 Beta MOs
 -- Occupied --
-26.639 -26.635 -26.579 -25.833 -11.834  -2.040  -1.961  -1.862
 -1.198  -1.113  -1.103  -1.093  -1.052  -0.950  -0.927  -0.915
 -0.884  -0.877  -0.215  -0.214  -0.214

          Ground-State Mulliken Net Atomic Charges

     Atom                 Charge (a.u.)    Spin (a.u.)
  --------------------------------------------------------
      1 C                     1.263574       0.000000
      2 F                    -0.203359       0.000000
      3 F                    -0.009980       0.000000
      4 F                    -0.996385       0.000000
      5 F                    -0.053849       0.000000
  --------------------------------------------------------
  Sum of atomic charges =     0.000000

                    Cartesian Multipole Moments
 -----------------------------------------------------------------
    Charge (ESU x 10^10)
                 0.0000
    Dipole Moment (Debye)
         X       7.7780      Y      15.3020      Z      -7.6427
       Tot      18.7899
    Quadrupole Moments (Debye-Ang)
        XX     -44.3029     XY      -8.4151     YY      27.3182
        XZ      13.9982     YZ      -5.1755     ZZ     -28.9844

 Total job time:  2123.95s(wall), 3448.73s(cpu)
        *  Thank you very much for using Q-Chem.  Have a nice day.  *
