 Q-Chem 4.3, Q-Chem, Inc., Pleasanton, CA (2015)
 Q-Chem 4.3.0 for Intel X86 Linux

User input:
--------------------------------------------------------------
$comment
XAS calculation for the 2b valence excited for water using cvs-adc(2)-x + 6-311+G* basis set
job 1 - determination of HF orbitals
$end

$molecule
0 1
6  -0.432072  3.011191  -0.268643
9  0.504703  2.373538  -0.001757
9  -1.145839  3.323479  0.766818
9  -1.247496  0.694262  0.597925
9  -1.125019  2.616004  -1.1746
$end

$rem
jobtype      sp
sym_ignore true
exchange     hf
basis        6-31G*
unrestricted true
$end

--------------------------------------------------------------

   13    -435.3181071062      5.00E-06 Convergence criterion met
 Total energy in the final basis set = -435.3181071062
 Total job time:  4.57s(wall), 14.21s(cpu)
        *  Thank you very much for using Q-Chem.  Have a nice day.  *
 Q-Chem 4.3, Q-Chem, Inc., Pleasanton, CA (2015)
 Q-Chem 4.3.0 for Intel X86 Linux

User input:
--------------------------------------------------------------

$comment
job3 - cvs-adc(2) calculation
$end

$molecule
read
$end

$rem
mem_total 3000
mem_static 1500
sym_ignore true
scf_guess read
method cvs-adc(2)
basis 6-31G*
ee_singlets 20
cc_rest_occ 5                  !only excitations from the lowest N orbitals
unrestricted  true
max_scf_cycles 200
$end
--------------------------------------------------------------

             Standard Nuclear Orientation (Angstroms)
    I     Atom           X                Y                Z
 ----------------------------------------------------------------
    1      C      -0.4320720000     3.0111910000    -0.2686430000
    2      F       0.5047030000     2.3735380000    -0.0017570000
    3      F      -1.1458390000     3.3234790000     0.7668180000
    4      F      -1.2474960000     0.6942620000     0.5979250000
    5      F      -1.1250190000     2.6160040000    -1.1746000000
 ----------------------------------------------------------------

    9    -435.3181073163      6.51E-09 Convergence criterion met
 Total energy in the final basis set = -435.3181073163
  Term symbol:  2 (-) A                                     R^2 =  1.21489e-12
  Excitation energy:                                             293.052962 eV
  Term symbol:  3 (-) A                                     R^2 =  1.20778e-12
  Excitation energy:                                             294.769487 eV
  Term symbol:  4 (-) A                                     R^2 =  1.27049e-12
  Excitation energy:                                             302.653228 eV
  Term symbol:  5 (-) A                                     R^2 =  5.85356e-12
  Excitation energy:                                             304.757834 eV
  Term symbol:  6 (-) A                                     R^2 =  8.65821e-13
  Excitation energy:                                             305.155481 eV
  Term symbol:  7 (-) A                                     R^2 =  1.16200e-12
  Excitation energy:                                             306.371930 eV
  Term symbol:  8 (-) A                                     R^2 =  5.78457e-12
  Excitation energy:                                             307.088889 eV
  Term symbol:  9 (-) A                                     R^2 =  1.14613e-11
  Excitation energy:                                             307.998155 eV
  Term symbol:  10 (-) A                                    R^2 =  1.26998e-11
  Excitation energy:                                             311.933997 eV
  Excited state 10 (A)                                             [converged]
  Term symbol:  11 (-) A                                    R^2 =  3.88994e-12
  Excitation energy:                                             313.089414 eV
  Excited state 11 (A)                                             [converged]
  Term symbol:  12 (-) A                                    R^2 =  2.87567e-11
  Excitation energy:                                             313.439010 eV
  Excited state 12 (A)                                             [converged]
  Term symbol:  13 (-) A                                    R^2 =  4.38269e-11
  Excitation energy:                                             313.478875 eV
  Excited state 13 (A)                                             [converged]
  Term symbol:  14 (-) A                                    R^2 =  1.00187e-10
  Excitation energy:                                             313.715899 eV
  Excited state 14 (A)                                             [converged]
  Term symbol:  15 (-) A                                    R^2 =  1.90055e-12
  Excitation energy:                                             314.245267 eV
  Excited state 15 (A)                                             [converged]
  Term symbol:  16 (-) A                                    R^2 =  2.70834e-10
  Excitation energy:                                             317.656906 eV
  Excited state 16 (A)                                             [converged]
  Term symbol:  17 (-) A                                    R^2 =  1.84349e-10
  Excitation energy:                                             318.239670 eV
  Excited state 17 (A)                                         [not converged]
  Term symbol:  18 (-) A                                    R^2 =  1.05316e-02
  Excitation energy:                                             323.025148 eV
  Excited state 18 (A)                                             [converged]
  Term symbol:  19 (-) A                                    R^2 =  2.85969e-07
  Excitation energy:                                             323.039013 eV
  Excited state 19 (A)                                         [not converged]
  Term symbol:  20 (-) A                                    R^2 =  7.33990e-02
  Excitation energy:                                             323.499199 eV
  Excited state 20 (A)                                         [not converged]
  Term symbol:  21 (-) A                                    R^2 =  1.57649e-01
  Excitation energy:                                             323.702152 eV

                    Orbital Energies (a.u.)
 --------------------------------------------------------------

 Alpha MOs
 -- Occupied --
-26.552 -26.532 -26.493 -25.972 -11.726  -1.976  -1.868  -1.792
 -1.228  -1.119  -1.033  -1.020  -0.975  -0.863  -0.842  -0.830
 -0.796  -0.790  -0.338  -0.337  -0.322

 Beta MOs
 -- Occupied --
-26.552 -26.532 -26.493 -25.972 -11.726  -1.976  -1.868  -1.792
 -1.228  -1.119  -1.033  -1.020  -0.975  -0.863  -0.842  -0.830
 -0.796  -0.790  -0.338  -0.337  -0.322

          Ground-State Mulliken Net Atomic Charges

     Atom                 Charge (a.u.)    Spin (a.u.)
  --------------------------------------------------------
      1 C                     1.102822       0.000000
      2 F                    -0.000320       0.000000
      3 F                    -0.175800       0.000000
      4 F                    -0.852722       0.000000
      5 F                    -0.073980       0.000000
  --------------------------------------------------------
  Sum of atomic charges =     0.000000

                    Cartesian Multipole Moments
 -----------------------------------------------------------------
    Charge (ESU x 10^10)
                 0.0000
    Dipole Moment (Debye)
         X       3.7348      Y       9.1922      Z      -3.7881
       Tot      10.6206
    Quadrupole Moments (Debye-Ang)
        XX     -28.3679     XY      -0.0030     YY      11.8729
        XZ       3.5738     YZ      -6.2748     ZZ     -23.8119

 Total job time:  1995.68s(wall), 3300.32s(cpu)
        *  Thank you very much for using Q-Chem.  Have a nice day.  *
