 Q-Chem 4.3, Q-Chem, Inc., Pleasanton, CA (2015)
 Q-Chem 4.3.0 for Intel X86 Linux

User input:
--------------------------------------------------------------
$comment
XAS calculation for the 2b valence excited for water using cvs-adc(2)-x + 6-311+G* basis set
job 1 - determination of HF orbitals
$end

$molecule
0 1
6  -0.570688  2.678433  -0.115212
9  0.688274  2.588447  -0.103857
9  -1.047245  3.488111  0.686463
9  -1.482936  0.297718  0.813409
9  -1.034744  2.816419  -1.324401
$end

$rem
jobtype      sp
sym_ignore true
exchange     hf
basis        6-31G*
unrestricted true
$end

--------------------------------------------------------------

   11    -435.3733489078      6.66E-06 Convergence criterion met
 Total energy in the final basis set = -435.3733489078
 Total job time:  2.97s(wall), 13.95s(cpu)
        *  Thank you very much for using Q-Chem.  Have a nice day.  *
 Q-Chem 4.3, Q-Chem, Inc., Pleasanton, CA (2015)
 Q-Chem 4.3.0 for Intel X86 Linux

User input:
--------------------------------------------------------------

$comment
job3 - cvs-adc(2) calculation
$end

$molecule
read
$end

$rem
mem_total 3000
mem_static 1500
sym_ignore true
scf_guess read
method cvs-adc(2)
basis 6-31G*
ee_singlets 20
cc_rest_occ 5                  !only excitations from the lowest N orbitals
unrestricted  true
max_scf_cycles 200
$end
--------------------------------------------------------------

             Standard Nuclear Orientation (Angstroms)
    I     Atom           X                Y                Z
 ----------------------------------------------------------------
    1      C      -0.5706880000     2.6784330000    -0.1152120000
    2      F       0.6882740000     2.5884470000    -0.1038570000
    3      F      -1.0472450000     3.4881110000     0.6864630000
    4      F      -1.4829360000     0.2977180000     0.8134090000
    5      F      -1.0347440000     2.8164190000    -1.3244010000
 ----------------------------------------------------------------

    8    -435.3733497727      6.01E-09 Convergence criterion met
 Total energy in the final basis set = -435.3733497727
  Term symbol:  2 (-) A                                     R^2 =  1.01592e-03
  Excitation energy:                                             294.115166 eV
  Term symbol:  3 (-) A                                     R^2 =  1.71541e-04
  Excitation energy:                                             295.966069 eV
  Term symbol:  4 (-) A                                     R^2 =  4.40722e-05
  Excitation energy:                                             302.307462 eV
  Term symbol:  5 (-) A                                     R^2 =  2.57146e-05
  Excitation energy:                                             303.412133 eV
  Term symbol:  6 (-) A                                     R^2 =  3.90327e-05
  Excitation energy:                                             304.123006 eV
  Term symbol:  7 (-) A                                     R^2 =  1.86136e-05
  Excitation energy:                                             304.385026 eV
  Term symbol:  8 (-) A                                     R^2 =  1.48421e-04
  Excitation energy:                                             305.450353 eV
  Term symbol:  9 (-) A                                     R^2 =  1.33839e-04
  Excitation energy:                                             306.055507 eV
  Term symbol:  10 (-) A                                    R^2 =  2.43207e-05
  Excitation energy:                                             313.289512 eV
  Excited state 10 (A)                                         [not converged]
  Term symbol:  11 (-) A                                    R^2 =  1.93292e-05
  Excitation energy:                                             313.822751 eV
  Excited state 11 (A)                                         [not converged]
  Term symbol:  12 (-) A                                    R^2 =  3.51856e-05
  Excitation energy:                                             313.921202 eV
  Excited state 12 (A)                                         [not converged]
  Term symbol:  13 (-) A                                    R^2 =  2.18992e-05
  Excitation energy:                                             314.101345 eV
  Excited state 13 (A)                                         [not converged]
  Term symbol:  14 (-) A                                    R^2 =  2.16348e-05
  Excitation energy:                                             314.314110 eV
  Excited state 14 (A)                                         [not converged]
  Term symbol:  15 (-) A                                    R^2 =  1.24653e-05
  Excitation energy:                                             314.477596 eV
  Excited state 15 (A)                                         [not converged]
  Term symbol:  16 (-) A                                    R^2 =  1.27239e-04
  Excitation energy:                                             314.669662 eV
  Excited state 16 (A)                                         [not converged]
  Term symbol:  17 (-) A                                    R^2 =  2.20842e-05
  Excitation energy:                                             315.811655 eV
  Excited state 17 (A)                                         [not converged]
  Term symbol:  18 (-) A                                    R^2 =  1.69052e-04
  Excitation energy:                                             327.004549 eV
  Excited state 18 (A)                                         [not converged]
  Term symbol:  19 (-) A                                    R^2 =  8.88480e-05
  Excitation energy:                                             327.085229 eV
  Excited state 19 (A)                                         [not converged]
  Term symbol:  20 (-) A                                    R^2 =  4.66293e-03
  Excitation energy:                                             331.316598 eV
  Excited state 20 (A)                                         [not converged]
  Term symbol:  21 (-) A                                    R^2 =  1.67939e-03
  Excitation energy:                                             331.450527 eV

                    Orbital Energies (a.u.)
 --------------------------------------------------------------

 Alpha MOs
 -- Occupied --
-26.512 -26.502 -26.486 -26.125 -11.719  -1.911  -1.814  -1.781
 -1.341  -1.092  -0.989  -0.982  -0.932  -0.839  -0.830  -0.808
 -0.794  -0.780  -0.459  -0.459  -0.388

 Beta MOs
 -- Occupied --
-26.512 -26.502 -26.486 -26.125 -11.719  -1.911  -1.814  -1.781
 -1.341  -1.092  -0.989  -0.982  -0.932  -0.839  -0.830  -0.808
 -0.794  -0.780  -0.459  -0.459  -0.388

          Ground-State Mulliken Net Atomic Charges

     Atom                 Charge (a.u.)    Spin (a.u.)
  --------------------------------------------------------
      1 C                     1.130256       0.000000
      2 F                    -0.178853       0.000000
      3 F                    -0.145990       0.000000
      4 F                    -0.584536       0.000000
      5 F                    -0.220876       0.000000
  --------------------------------------------------------
  Sum of atomic charges =     0.000000

                    Cartesian Multipole Moments
 -----------------------------------------------------------------
    Charge (ESU x 10^10)
                 0.0000
    Dipole Moment (Debye)
         X       2.4784      Y       6.4762      Z      -2.2388
       Tot       7.2867
    Quadrupole Moments (Debye-Ang)
        XX     -28.5830     XY      -2.7215     YY      -3.5124
        XZ       3.0843     YZ      -0.9006     ZZ     -25.4587

 Total job time:  2210.07s(wall), 3597.97s(cpu)
        *  Thank you very much for using Q-Chem.  Have a nice day.  *
