 Q-Chem 4.3, Q-Chem, Inc., Pleasanton, CA (2015)
 Q-Chem 4.3.0 for Intel X86 Linux

User input:
--------------------------------------------------------------
$comment
XAS calculation for the 2b valence excited for water using cvs-adc(2)-x + 6-311+G* basis set
job 1 - determination of HF orbitals
$end

$molecule
0 1
6  -0.410406  3.008998  -0.247737
9  0.722799  2.493817  -0.085428
9  -1.135276  3.099821  0.793545
9  -1.497268  0.859484  0.71659
9  -1.080489  2.569216  -1.265068
$end

$rem
jobtype      sp
sym_ignore true
exchange     hf
basis        6-31G*
unrestricted true
$end

--------------------------------------------------------------

   15    -435.3233702476      6.50E-06 Convergence criterion met
 Total energy in the final basis set = -435.3233702476
 Total job time:  4.07s(wall), 16.04s(cpu)
        *  Thank you very much for using Q-Chem.  Have a nice day.  *
 Q-Chem 4.3, Q-Chem, Inc., Pleasanton, CA (2015)
 Q-Chem 4.3.0 for Intel X86 Linux

User input:
--------------------------------------------------------------

$comment
job3 - cvs-adc(2) calculation
$end

$molecule
read
$end

$rem
mem_total 3000
mem_static 1500
sym_ignore true
scf_guess read
method cvs-adc(2)
basis 6-31G*
ee_singlets 20
cc_rest_occ 5                  !only excitations from the lowest N orbitals
unrestricted  true
max_scf_cycles 200
$end
--------------------------------------------------------------

             Standard Nuclear Orientation (Angstroms)
    I     Atom           X                Y                Z
 ----------------------------------------------------------------
    1      C      -0.4104060000     3.0089980000    -0.2477370000
    2      F       0.7227990000     2.4938170000    -0.0854280000
    3      F      -1.1352760000     3.0998210000     0.7935450000
    4      F      -1.4972680000     0.8594840000     0.7165900000
    5      F      -1.0804890000     2.5692160000    -1.2650680000
 ----------------------------------------------------------------

    9    -435.3233700527      6.50E-09 Convergence criterion met
 Total energy in the final basis set = -435.3233700527
  Term symbol:  2 (-) A                                     R^2 =  6.38327e-13
  Excitation energy:                                             293.188282 eV
  Term symbol:  3 (-) A                                     R^2 =  7.58318e-13
  Excitation energy:                                             294.828487 eV
  Term symbol:  4 (-) A                                     R^2 =  2.95018e-12
  Excitation energy:                                             302.260017 eV
  Term symbol:  5 (-) A                                     R^2 =  3.99710e-13
  Excitation energy:                                             303.054929 eV
  Term symbol:  6 (-) A                                     R^2 =  2.86025e-12
  Excitation energy:                                             303.246027 eV
  Term symbol:  7 (-) A                                     R^2 =  6.11838e-13
  Excitation energy:                                             304.250131 eV
  Term symbol:  8 (-) A                                     R^2 =  1.53476e-13
  Excitation energy:                                             305.148870 eV
  Term symbol:  9 (-) A                                     R^2 =  2.90204e-12
  Excitation energy:                                             305.214128 eV
  Term symbol:  10 (-) A                                    R^2 =  3.80064e-13
  Excitation energy:                                             311.874153 eV
  Excited state 10 (A)                                             [converged]
  Term symbol:  11 (-) A                                    R^2 =  3.07789e-12
  Excitation energy:                                             313.162930 eV
  Excited state 11 (A)                                             [converged]
  Term symbol:  12 (-) A                                    R^2 =  9.04469e-12
  Excitation energy:                                             313.286881 eV
  Excited state 12 (A)                                             [converged]
  Term symbol:  13 (-) A                                    R^2 =  3.32272e-12
  Excitation energy:                                             313.307255 eV
  Excited state 13 (A)                                             [converged]
  Term symbol:  14 (-) A                                    R^2 =  5.76197e-12
  Excitation energy:                                             313.714798 eV
  Excited state 14 (A)                                             [converged]
  Term symbol:  15 (-) A                                    R^2 =  6.65707e-12
  Excitation energy:                                             313.870673 eV
  Excited state 15 (A)                                             [converged]
  Term symbol:  16 (-) A                                    R^2 =  1.86277e-09
  Excitation energy:                                             317.010727 eV
  Excited state 16 (A)                                             [converged]
  Term symbol:  17 (-) A                                    R^2 =  2.69886e-11
  Excitation energy:                                             317.586303 eV
  Excited state 17 (A)                                             [converged]
  Term symbol:  18 (-) A                                    R^2 =  4.56622e-08
  Excitation energy:                                             322.494267 eV
  Excited state 18 (A)                                             [converged]
  Term symbol:  19 (-) A                                    R^2 =  2.82830e-08
  Excitation energy:                                             322.525852 eV
  Excited state 19 (A)                                         [not converged]
  Term symbol:  20 (-) A                                    R^2 =  3.84763e-01
  Excitation energy:                                             324.980421 eV
  Excited state 20 (A)                                         [not converged]
  Term symbol:  21 (-) A                                    R^2 =  7.44148e-01
  Excitation energy:                                             329.896735 eV

                    Orbital Energies (a.u.)
 --------------------------------------------------------------

 Alpha MOs
 -- Occupied --
-26.530 -26.515 -26.506 -26.003 -11.725  -1.906  -1.814  -1.789
 -1.254  -1.095  -0.991  -0.983  -0.931  -0.834  -0.832  -0.811
 -0.793  -0.787  -0.364  -0.364  -0.330

 Beta MOs
 -- Occupied --
-26.530 -26.515 -26.506 -26.003 -11.725  -1.906  -1.814  -1.789
 -1.254  -1.095  -0.991  -0.983  -0.931  -0.834  -0.832  -0.811
 -0.793  -0.787  -0.364  -0.364  -0.330

          Ground-State Mulliken Net Atomic Charges

     Atom                 Charge (a.u.)    Spin (a.u.)
  --------------------------------------------------------
      1 C                     1.193576       0.000000
      2 F                    -0.140008       0.000000
      3 F                    -0.091367       0.000000
      4 F                    -0.796610       0.000000
      5 F                    -0.165590       0.000000
  --------------------------------------------------------
  Sum of atomic charges =     0.000000

                    Cartesian Multipole Moments
 -----------------------------------------------------------------
    Charge (ESU x 10^10)
                 0.0000
    Dipole Moment (Debye)
         X       4.0775      Y       8.1844      Z      -3.4137
       Tot       9.7603
    Quadrupole Moments (Debye-Ang)
        XX     -30.6558     XY       0.4335     YY       9.7528
        XZ       4.0403     YZ      -4.8408     ZZ     -24.7188

 Total job time:  2000.26s(wall), 3310.28s(cpu)
        *  Thank you very much for using Q-Chem.  Have a nice day.  *
