 Q-Chem 4.3, Q-Chem, Inc., Pleasanton, CA (2015)
 Q-Chem 4.3.0 for Intel X86 Linux

User input:
--------------------------------------------------------------
$comment
XAS calculation for the 2b valence excited for water using cvs-adc(2)-x + 6-311+G* basis set
job 1 - determination of HF orbitals
$end

$molecule
0 1
6  -0.673647  2.827919  -0.119804
9  0.527202  2.454365  0.017738
9  -1.012208  3.780994  0.610256
9  -1.234114  -0.048928  0.728474
9  -1.099191  2.910851  -1.277353
$end

$rem
jobtype      sp
sym_ignore true
exchange     hf
basis        6-31G*
unrestricted true
$end

--------------------------------------------------------------

   14    -435.3369044029      5.12E-06 Convergence criterion met
 Total energy in the final basis set = -435.3369044029

                    Orbital Energies (a.u.)
 --------------------------------------------------------------

 Alpha MOs
 -- Occupied --
-26.536 -26.535 -26.514 -26.051 -11.740  -1.944  -1.843  -1.822
 -1.281  -1.118  -1.020  -1.016  -0.964  -0.864  -0.860  -0.835
 -0.822  -0.808  -0.397  -0.397  -0.334

 Beta MOs
 -- Occupied --
-26.536 -26.535 -26.514 -26.051 -11.740  -1.944  -1.843  -1.822
 -1.281  -1.118  -1.020  -1.016  -0.964  -0.864  -0.860  -0.835
 -0.822  -0.808  -0.397  -0.397  -0.334

          Ground-State Mulliken Net Atomic Charges

     Atom                 Charge (a.u.)    Spin (a.u.)
  --------------------------------------------------------
      1 C                     1.143853       0.000000
      2 F                    -0.156724       0.000000
      3 F                    -0.160973       0.000000
      4 F                    -0.686735       0.000000
      5 F                    -0.139422       0.000000
  --------------------------------------------------------
  Sum of atomic charges =     0.000000

                    Cartesian Multipole Moments
 -----------------------------------------------------------------
    Charge (ESU x 10^10)
                 0.0000
    Dipole Moment (Debye)
         X       1.6493      Y       9.2364      Z      -2.7423
       Tot       9.7750
    Quadrupole Moments (Debye-Ang)
        XX     -26.2909     XY      -6.4937     YY       2.8166
        XZ       3.0632     YZ      -1.2538     ZZ     -24.7550

 Total job time:  3.65s(wall), 14.79s(cpu)
        *  Thank you very much for using Q-Chem.  Have a nice day.  *
 Q-Chem 4.3, Q-Chem, Inc., Pleasanton, CA (2015)
 Q-Chem 4.3.0 for Intel X86 Linux

User input:
--------------------------------------------------------------

$comment
job3 - cvs-adc(2) calculation
$end

$molecule
read
$end

$rem
mem_total 3000
mem_static 1500
sym_ignore true
scf_guess read
method cvs-adc(2)
basis 6-31G*
ee_singlets 20
cc_rest_occ 5                  !only excitations from the lowest N orbitals
unrestricted  true
max_scf_cycles 200
$end
--------------------------------------------------------------

             Standard Nuclear Orientation (Angstroms)
    I     Atom           X                Y                Z
 ----------------------------------------------------------------
    1      C      -0.6736470000     2.8279190000    -0.1198040000
    2      F       0.5272020000     2.4543650000     0.0177380000
    3      F      -1.0122080000     3.7809940000     0.6102560000
    4      F      -1.2341140000    -0.0489280000     0.7284740000
    5      F      -1.0991910000     2.9108510000    -1.2773530000
 ----------------------------------------------------------------

    8    -435.3369045045      6.79E-09 Convergence criterion met
 Total energy in the final basis set = -435.3369045045
