 Q-Chem 4.3, Q-Chem, Inc., Pleasanton, CA (2015)
 Q-Chem 4.3.0 for Intel X86 Linux

User input:
--------------------------------------------------------------
$comment
XAS calculation for the 2b valence excited for water using cvs-adc(2)-x + 6-311+G* basis set
job 1 - determination of HF orbitals
$end

$molecule
0 1
6  -0.392045  2.813045  -0.273354
9  0.799253  2.759787  -0.209272
9  -1.026385  3.31713  0.71491
9  -1.817304  0.18133  1.029349
9  -0.929935  2.833518  -1.363987
$end

$rem
jobtype      sp
sym_ignore true
exchange     hf
basis        6-31G*
unrestricted true
$end

--------------------------------------------------------------

   12    -435.3289830073      4.85E-06 Convergence criterion met
 Total energy in the final basis set = -435.3289830073
 Total job time:  7.17s(wall), 14.34s(cpu)
        *  Thank you very much for using Q-Chem.  Have a nice day.  *
 Q-Chem 4.3, Q-Chem, Inc., Pleasanton, CA (2015)
 Q-Chem 4.3.0 for Intel X86 Linux

User input:
--------------------------------------------------------------

$comment
job3 - cvs-adc(2) calculation
$end

$molecule
read
$end

$rem
mem_total 3000
mem_static 1500
sym_ignore true
scf_guess read
method cvs-adc(2)
basis 6-31G*
ee_singlets 20
cc_rest_occ 5                  !only excitations from the lowest N orbitals
unrestricted  true
max_scf_cycles 200
$end
--------------------------------------------------------------

             Standard Nuclear Orientation (Angstroms)
    I     Atom           X                Y                Z
 ----------------------------------------------------------------
    1      C      -0.3920450000     2.8130450000    -0.2733540000
    2      F       0.7992530000     2.7597870000    -0.2092720000
    3      F      -1.0263850000     3.3171300000     0.7149100000
    4      F      -1.8173040000     0.1813300000     1.0293490000
    5      F      -0.9299350000     2.8335180000    -1.3639870000
 ----------------------------------------------------------------

    9    -435.3289830144      3.70E-09 Convergence criterion met
 Total energy in the final basis set = -435.3289830144
  Term symbol:  2 (-) A                                     R^2 =  9.63272e-14
  Excitation energy:                                             294.476375 eV
  Term symbol:  3 (-) A                                     R^2 =  2.18977e-13
  Excitation energy:                                             296.382422 eV
  Term symbol:  4 (-) A                                     R^2 =  4.74749e-14
  Excitation energy:                                             302.727197 eV
  Term symbol:  5 (-) A                                     R^2 =  2.94959e-14
  Excitation energy:                                             304.510568 eV
  Term symbol:  6 (-) A                                     R^2 =  4.48506e-14
  Excitation energy:                                             304.683029 eV
  Term symbol:  7 (-) A                                     R^2 =  2.61449e-14
  Excitation energy:                                             305.805918 eV
  Term symbol:  8 (-) A                                     R^2 =  3.73761e-14
  Excitation energy:                                             306.684178 eV
  Term symbol:  9 (-) A                                     R^2 =  1.93840e-14
  Excitation energy:                                             307.895627 eV
  Term symbol:  10 (-) A                                    R^2 =  3.31294e-14
  Excitation energy:                                             313.066072 eV
  Excited state 10 (A)                                             [converged]
  Term symbol:  11 (-) A                                    R^2 =  4.32974e-14
  Excitation energy:                                             314.068809 eV
  Excited state 11 (A)                                             [converged]
  Term symbol:  12 (-) A                                    R^2 =  6.64367e-14
  Excitation energy:                                             314.089829 eV
  Excited state 12 (A)                                             [converged]
  Term symbol:  13 (-) A                                    R^2 =  6.09678e-14
  Excitation energy:                                             314.654574 eV
  Excited state 13 (A)                                             [converged]
  Term symbol:  14 (-) A                                    R^2 =  2.98430e-14
  Excitation energy:                                             314.808854 eV
  Excited state 14 (A)                                             [converged]
  Term symbol:  15 (-) A                                    R^2 =  1.42017e-13
  Excitation energy:                                             315.115802 eV
  Excited state 15 (A)                                             [converged]
  Term symbol:  16 (-) A                                    R^2 =  1.62567e-13
  Excitation energy:                                             315.187963 eV
  Excited state 16 (A)                                             [converged]
  Term symbol:  17 (-) A                                    R^2 =  5.64237e-13
  Excitation energy:                                             316.026385 eV
  Excited state 17 (A)                                             [converged]
  Term symbol:  18 (-) A                                    R^2 =  5.30303e-12
  Excitation energy:                                             326.009429 eV
  Excited state 18 (A)                                             [converged]
  Term symbol:  19 (-) A                                    R^2 =  1.50192e-12
  Excitation energy:                                             326.034536 eV
  Excited state 19 (A)                                         [not converged]
  Term symbol:  20 (-) A                                    R^2 =  3.62943e-06
  Excitation energy:                                             331.501857 eV
  Excited state 20 (A)                                         [not converged]
  Term symbol:  21 (-) A                                    R^2 =  1.92084e-06
  Excitation energy:                                             331.675088 eV

                    Orbital Energies (a.u.)
 --------------------------------------------------------------

 Alpha MOs
 -- Occupied --
-26.587 -26.573 -26.537 -25.960 -11.771  -1.999  -1.904  -1.846
 -1.207  -1.155  -1.070  -1.056  -1.011  -0.900  -0.892  -0.882
 -0.848  -0.837  -0.321  -0.321  -0.287

 Beta MOs
 -- Occupied --
-26.587 -26.573 -26.537 -25.960 -11.771  -1.999  -1.904  -1.846
 -1.207  -1.155  -1.070  -1.056  -1.011  -0.900  -0.892  -0.882
 -0.848  -0.837  -0.321  -0.321  -0.287

          Ground-State Mulliken Net Atomic Charges

     Atom                 Charge (a.u.)    Spin (a.u.)
  --------------------------------------------------------
      1 C                     1.174438       0.000000
      2 F                    -0.083020       0.000000
      3 F                    -0.156358       0.000000
      4 F                    -0.830331       0.000000
      5 F                    -0.104730       0.000000
  --------------------------------------------------------
  Sum of atomic charges =     0.000000

                    Cartesian Multipole Moments
 -----------------------------------------------------------------
    Charge (ESU x 10^10)
                 0.0000
    Dipole Moment (Debye)
         X       5.7832      Y      10.1580      Z      -5.2662
       Tot      12.8204
    Quadrupole Moments (Debye-Ang)
        XX     -35.0677     XY      -2.2483     YY       7.7781
        XZ       7.7807     YZ      -4.3707     ZZ     -26.5007

 Total job time:  1922.59s(wall), 3120.12s(cpu)
        *  Thank you very much for using Q-Chem.  Have a nice day.  *
