 Q-Chem 4.3, Q-Chem, Inc., Pleasanton, CA (2015)
 Q-Chem 4.3.0 for Intel X86 Linux

User input:
--------------------------------------------------------------
$comment
XAS calculation for the 2b valence excited for water using cvs-adc(2)-x + 6-311+G* basis set
job 1 - determination of HF orbitals
$end

$molecule
0 1
6  -0.437823  3.039819  -0.320137
9  0.6854  2.635127  -0.120957
9  -1.027368  3.514495  0.663955
9  -1.619423  -0.053928  0.962108
9  -0.996832  2.867233  -1.302375
$end

$rem
jobtype      sp
sym_ignore true
exchange     hf
basis        6-31G*
unrestricted true
$end

--------------------------------------------------------------

   12    -435.3061907494      2.95E-06 Convergence criterion met
 Total energy in the final basis set = -435.3061907494
 Total job time:  3.25s(wall), 12.55s(cpu)
        *  Thank you very much for using Q-Chem.  Have a nice day.  *
 Q-Chem 4.3, Q-Chem, Inc., Pleasanton, CA (2015)
 Q-Chem 4.3.0 for Intel X86 Linux

User input:
--------------------------------------------------------------

$comment
job3 - cvs-adc(2) calculation
$end

$molecule
read
$end

$rem
mem_total 3000
mem_static 1500
sym_ignore true
scf_guess read
method cvs-adc(2)
basis 6-31G*
ee_singlets 20
cc_rest_occ 5                  !only excitations from the lowest N orbitals
unrestricted  true
max_scf_cycles 200
$end
--------------------------------------------------------------

             Standard Nuclear Orientation (Angstroms)
    I     Atom           X                Y                Z
 ----------------------------------------------------------------
    1      C      -0.4378230000     3.0398190000    -0.3201370000
    2      F       0.6854000000     2.6351270000    -0.1209570000
    3      F      -1.0273680000     3.5144950000     0.6639550000
    4      F      -1.6194230000    -0.0539280000     0.9621080000
    5      F      -0.9968320000     2.8672330000    -1.3023750000
 ----------------------------------------------------------------

    6    -435.3061907737      7.89E-09 Convergence criterion met
 Total energy in the final basis set = -435.3061907737
  Term symbol:  2 (-) A                                     R^2 =  9.96036e-14
  Excitation energy:                                             294.718752 eV
  Term symbol:  3 (-) A                                     R^2 =  3.37740e-13
  Excitation energy:                                             296.622970 eV
  Term symbol:  4 (-) A                                     R^2 =  1.40995e-13
  Excitation energy:                                             303.362966 eV
  Term symbol:  5 (-) A                                     R^2 =  7.16570e-14
  Excitation energy:                                             304.905273 eV
  Term symbol:  6 (-) A                                     R^2 =  1.30413e-13
  Excitation energy:                                             305.264369 eV
  Term symbol:  7 (-) A                                     R^2 =  5.80472e-14
  Excitation energy:                                             307.436382 eV
  Term symbol:  8 (-) A                                     R^2 =  6.74461e-14
  Excitation energy:                                             307.786048 eV
  Term symbol:  9 (-) A                                     R^2 =  4.92067e-14
  Excitation energy:                                             309.801243 eV
  Term symbol:  10 (-) A                                    R^2 =  1.64639e-13
  Excitation energy:                                             313.002591 eV
  Excited state 10 (A)                                             [converged]
  Term symbol:  11 (-) A                                    R^2 =  6.38752e-13
  Excitation energy:                                             314.239781 eV
  Excited state 11 (A)                                             [converged]
  Term symbol:  12 (-) A                                    R^2 =  3.78013e-13
  Excitation energy:                                             314.615924 eV
  Excited state 12 (A)                                             [converged]
  Term symbol:  13 (-) A                                    R^2 =  5.88663e-13
  Excitation energy:                                             314.882704 eV
  Excited state 13 (A)                                             [converged]
  Term symbol:  14 (-) A                                    R^2 =  2.37040e-13
  Excitation energy:                                             314.978577 eV
  Excited state 14 (A)                                             [converged]
  Term symbol:  15 (-) A                                    R^2 =  4.08480e-13
  Excitation energy:                                             315.133854 eV
  Excited state 15 (A)                                             [converged]
  Term symbol:  16 (-) A                                    R^2 =  2.30187e-13
  Excitation energy:                                             315.474496 eV
  Excited state 16 (A)                                             [converged]
  Term symbol:  17 (-) A                                    R^2 =  5.64336e-13
  Excitation energy:                                             316.355610 eV
  Excited state 17 (A)                                         [not converged]
  Term symbol:  18 (-) A                                    R^2 =  3.14498e-01
  Excitation energy:                                             326.725489 eV
  Excited state 18 (A)                                         [not converged]
  Term symbol:  19 (-) A                                    R^2 =  2.39237e-06
  Excitation energy:                                             331.282936 eV
  Excited state 19 (A)                                         [not converged]
  Term symbol:  20 (-) A                                    R^2 =  2.04153e-03
  Excitation energy:                                             331.289868 eV
  Excited state 20 (A)                                         [not converged]
  Term symbol:  21 (-) A                                    R^2 =  4.28928e-02
  Excitation energy:                                             331.308692 eV

                    Orbital Energies (a.u.)
 --------------------------------------------------------------

 Alpha MOs
 -- Occupied --
-26.631 -26.594 -26.576 -25.873 -11.797  -2.061  -1.949  -1.896
 -1.191  -1.137  -1.114  -1.106  -1.062  -0.935  -0.928  -0.916
 -0.885  -0.870  -0.248  -0.248  -0.243

 Beta MOs
 -- Occupied --
-26.631 -26.594 -26.576 -25.873 -11.797  -2.061  -1.949  -1.896
 -1.191  -1.137  -1.114  -1.106  -1.062  -0.935  -0.928  -0.916
 -0.885  -0.870  -0.248  -0.248  -0.243

          Ground-State Mulliken Net Atomic Charges

     Atom                 Charge (a.u.)    Spin (a.u.)
  --------------------------------------------------------
      1 C                     1.167031       0.000000
      2 F                    -0.088027       0.000000
      3 F                    -0.123587       0.000000
      4 F                    -0.958737       0.000000
      5 F                     0.003320       0.000000
  --------------------------------------------------------
  Sum of atomic charges =     0.000000

                    Cartesian Multipole Moments
 -----------------------------------------------------------------
    Charge (ESU x 10^10)
                 0.0000
    Dipole Moment (Debye)
         X       5.2773      Y      13.9369      Z      -6.2097
       Tot      16.1445
    Quadrupole Moments (Debye-Ang)
        XX     -33.2084     XY      -6.4185     YY      19.3928
        XZ       8.0469     YZ      -5.5386     ZZ     -25.6078

 Total job time:  1858.94s(wall), 3028.26s(cpu)
        *  Thank you very much for using Q-Chem.  Have a nice day.  *
