 Q-Chem 4.3, Q-Chem, Inc., Pleasanton, CA (2015)
 Q-Chem 4.3.0 for Intel X86 Linux

User input:
--------------------------------------------------------------
$comment
XAS calculation for the 2b valence excited for water using cvs-adc(2)-x + 6-311+G* basis set
job 1 - determination of HF orbitals
$end

$molecule
0 1
6  -0.673569  2.79286  -0.113829
9  0.523918  2.453983  0.016352
9  -1.014881  3.774554  0.614823
9  -1.229013  -0.014006  0.719172
9  -1.09841  2.904954  -1.274972
$end

$rem
jobtype      sp
sym_ignore true
exchange     hf
basis        6-31G*
unrestricted true
$end

--------------------------------------------------------------

   14    -435.3406625807      7.31E-06 Convergence criterion met
 Total energy in the final basis set = -435.3406625807
 Total job time:  3.69s(wall), 16.67s(cpu)
        *  Thank you very much for using Q-Chem.  Have a nice day.  *
 Q-Chem 4.3, Q-Chem, Inc., Pleasanton, CA (2015)
 Q-Chem 4.3.0 for Intel X86 Linux

User input:
--------------------------------------------------------------

$comment
job3 - cvs-adc(2) calculation
$end

$molecule
read
$end

$rem
mem_total 3000
mem_static 1500
sym_ignore true
scf_guess read
method cvs-adc(2)
basis 6-31G*
ee_singlets 20
cc_rest_occ 5                  !only excitations from the lowest N orbitals
unrestricted  true
max_scf_cycles 200
$end
--------------------------------------------------------------

             Standard Nuclear Orientation (Angstroms)
    I     Atom           X                Y                Z
 ----------------------------------------------------------------
    1      C      -0.6735690000     2.7928600000    -0.1138290000
    2      F       0.5239180000     2.4539830000     0.0163520000
    3      F      -1.0148810000     3.7745540000     0.6148230000
    4      F      -1.2290130000    -0.0140060000     0.7191720000
    5      F      -1.0984100000     2.9049540000    -1.2749720000
 ----------------------------------------------------------------

    9    -435.3406627171      4.84E-09 Convergence criterion met
 Total energy in the final basis set = -435.3406627171
  Term symbol:  2 (-) A                                     R^2 =  1.53885e-06
  Excitation energy:                                             294.053769 eV
  Term symbol:  3 (-) A                                     R^2 =  6.14718e-08
  Excitation energy:                                             295.879019 eV
  Term symbol:  4 (-) A                                     R^2 =  5.82476e-08
  Excitation energy:                                             303.029742 eV
  Term symbol:  5 (-) A                                     R^2 =  1.96562e-07
  Excitation energy:                                             303.703155 eV
  Term symbol:  6 (-) A                                     R^2 =  1.40044e-08
  Excitation energy:                                             303.991483 eV
  Term symbol:  7 (-) A                                     R^2 =  7.83036e-09
  Excitation energy:                                             305.088135 eV
  Term symbol:  8 (-) A                                     R^2 =  2.30433e-08
  Excitation energy:                                             305.620700 eV
  Term symbol:  9 (-) A                                     R^2 =  2.69636e-08
  Excitation energy:                                             306.010287 eV
  Term symbol:  10 (-) A                                    R^2 =  2.95384e-08
  Excitation energy:                                             313.157003 eV
  Excited state 10 (A)                                             [converged]
  Term symbol:  11 (-) A                                    R^2 =  1.92969e-08
  Excitation energy:                                             313.432386 eV
  Excited state 11 (A)                                             [converged]
  Term symbol:  12 (-) A                                    R^2 =  5.44318e-09
  Excitation energy:                                             313.824940 eV
  Excited state 12 (A)                                             [converged]
  Term symbol:  13 (-) A                                    R^2 =  6.82069e-08
  Excitation energy:                                             313.840203 eV
  Excited state 13 (A)                                             [converged]
  Term symbol:  14 (-) A                                    R^2 =  3.02050e-08
  Excitation energy:                                             314.291653 eV
  Excited state 14 (A)                                             [converged]
  Term symbol:  15 (-) A                                    R^2 =  1.43116e-08
  Excitation energy:                                             314.353260 eV
  Excited state 15 (A)                                             [converged]
  Term symbol:  16 (-) A                                    R^2 =  1.40476e-07
  Excitation energy:                                             314.391197 eV
  Excited state 16 (A)                                             [converged]
  Term symbol:  17 (-) A                                    R^2 =  4.68551e-08
  Excitation energy:                                             315.393554 eV
  Excited state 17 (A)                                             [converged]
  Term symbol:  18 (-) A                                    R^2 =  8.23836e-08
  Excitation energy:                                             325.044752 eV
  Excited state 18 (A)                                             [converged]
  Term symbol:  19 (-) A                                    R^2 =  4.70977e-08
  Excitation energy:                                             325.116585 eV
  Excited state 19 (A)                                         [not converged]
  Term symbol:  20 (-) A                                    R^2 =  1.48605e-03
  Excitation energy:                                             331.412025 eV
  Excited state 20 (A)                                         [not converged]
  Term symbol:  21 (-) A                                    R^2 =  1.47879e-03
  Excitation energy:                                             331.538696 eV

                    Orbital Energies (a.u.)
 --------------------------------------------------------------

 Alpha MOs
 -- Occupied --
-26.527 -26.519 -26.513 -26.073 -11.733  -1.933  -1.829  -1.817
 -1.298  -1.110  -1.009  -1.007  -0.954  -0.858  -0.850  -0.823
 -0.817  -0.800  -0.415  -0.415  -0.347

 Beta MOs
 -- Occupied --
-26.527 -26.519 -26.513 -26.073 -11.733  -1.933  -1.829  -1.817
 -1.298  -1.110  -1.009  -1.007  -0.954  -0.858  -0.850  -0.823
 -0.817  -0.800  -0.415  -0.415  -0.347

          Ground-State Mulliken Net Atomic Charges

     Atom                 Charge (a.u.)    Spin (a.u.)
  --------------------------------------------------------
      1 C                     1.137215       0.000000
      2 F                    -0.145505       0.000000
      3 F                    -0.187800       0.000000
      4 F                    -0.655271       0.000000
      5 F                    -0.148639       0.000000
  --------------------------------------------------------
  Sum of atomic charges =     0.000000

                    Cartesian Multipole Moments
 -----------------------------------------------------------------
    Charge (ESU x 10^10)
                 0.0000
    Dipole Moment (Debye)
         X       1.6376      Y       8.4896      Z      -2.5958
       Tot       9.0273
    Quadrupole Moments (Debye-Ang)
        XX     -26.2430     XY      -5.6592     YY       0.3496
        XZ       2.8806     YZ      -1.3537     ZZ     -24.7722

 Total job time:  2069.00s(wall), 3378.13s(cpu)
        *  Thank you very much for using Q-Chem.  Have a nice day.  *
