 Q-Chem 4.3, Q-Chem, Inc., Pleasanton, CA (2015)
 Q-Chem 4.3.0 for Intel X86 Linux

User input:
--------------------------------------------------------------
$comment
XAS calculation for the 2b valence excited for water using cvs-adc(2)-x + 6-311+G* basis set
job 1 - determination of HF orbitals
$end

$molecule
0 1
6  -0.595703  2.624743  -0.128574
9  0.584887  2.32817  0.004822
9  -1.141024  3.257071  0.788393
9  -1.171999  1.096533  0.471617
9  -1.132915  2.541012  -1.191647
$end

$rem
jobtype      sp
sym_ignore true
exchange     hf
basis        6-31G*
unrestricted true
$end

--------------------------------------------------------------

    8    -435.5225470766      8.70E-06 Convergence criterion met
 Total energy in the final basis set = -435.5225470766
 Total job time:  2.31s(wall), 9.47s(cpu)
        *  Thank you very much for using Q-Chem.  Have a nice day.  *
 Q-Chem 4.3, Q-Chem, Inc., Pleasanton, CA (2015)
 Q-Chem 4.3.0 for Intel X86 Linux

User input:
--------------------------------------------------------------

$comment
job3 - cvs-adc(2) calculation
$end

$molecule
read
$end

$rem
mem_total 3000
mem_static 1500
sym_ignore true
scf_guess read
method cvs-adc(2)
basis 6-31G*
ee_singlets 20
cc_rest_occ 5                  !only excitations from the lowest N orbitals
unrestricted  true
max_scf_cycles 200
$end
--------------------------------------------------------------

             Standard Nuclear Orientation (Angstroms)
    I     Atom           X                Y                Z
 ----------------------------------------------------------------
    1      C      -0.5957030000     2.6247430000    -0.1285740000
    2      F       0.5848870000     2.3281700000     0.0048220000
    3      F      -1.1410240000     3.2570710000     0.7883930000
    4      F      -1.1719990000     1.0965330000     0.4716170000
    5      F      -1.1329150000     2.5410120000    -1.1916470000
 ----------------------------------------------------------------

    6    -435.5225472519      8.60E-09 Convergence criterion met
 Total energy in the final basis set = -435.5225472519
  Term symbol:  2 (-) A                                     R^2 =  5.26669e-13
  Excitation energy:                                             296.231761 eV
  Term symbol:  3 (-) A                                     R^2 =  2.12826e-13
  Excitation energy:                                             298.171092 eV
  Term symbol:  4 (-) A                                     R^2 =  2.69055e-13
  Excitation energy:                                             303.792104 eV
  Term symbol:  5 (-) A                                     R^2 =  1.71164e-12
  Excitation energy:                                             304.801761 eV
  Term symbol:  6 (-) A                                     R^2 =  7.67299e-13
  Excitation energy:                                             305.800632 eV
  Term symbol:  7 (-) A                                     R^2 =  4.82761e-13
  Excitation energy:                                             305.928532 eV
  Term symbol:  8 (-) A                                     R^2 =  1.58541e-13
  Excitation energy:                                             307.007579 eV
  Term symbol:  9 (-) A                                     R^2 =  4.26315e-13
  Excitation energy:                                             308.089049 eV
  Term symbol:  10 (-) A                                    R^2 =  4.71919e-13
  Excitation energy:                                             311.720477 eV
  Excited state 10 (A)                                             [converged]
  Term symbol:  11 (-) A                                    R^2 =  3.33423e-13
  Excitation energy:                                             313.220845 eV
  Excited state 11 (A)                                             [converged]
  Term symbol:  12 (-) A                                    R^2 =  1.61054e-12
  Excitation energy:                                             314.179268 eV
  Excited state 12 (A)                                             [converged]
  Term symbol:  13 (-) A                                    R^2 =  3.46721e-13
  Excitation energy:                                             314.336716 eV
  Excited state 13 (A)                                             [converged]
  Term symbol:  14 (-) A                                    R^2 =  8.56288e-13
  Excitation energy:                                             314.537274 eV
  Excited state 14 (A)                                             [converged]
  Term symbol:  15 (-) A                                    R^2 =  5.90230e-13
  Excitation energy:                                             314.754577 eV
  Excited state 15 (A)                                             [converged]
  Term symbol:  16 (-) A                                    R^2 =  4.38184e-12
  Excitation energy:                                             317.533844 eV
  Excited state 16 (A)                                             [converged]
  Term symbol:  17 (-) A                                    R^2 =  1.84693e-11
  Excitation energy:                                             317.958066 eV
  Excited state 17 (A)                                             [converged]
  Term symbol:  18 (-) A                                    R^2 =  6.30019e-07
  Excitation energy:                                             330.924155 eV
  Excited state 18 (A)                                         [not converged]
  Term symbol:  19 (-) A                                    R^2 =  2.28178e-06
  Excitation energy:                                             331.091334 eV
  Excited state 19 (A)                                         [not converged]
  Term symbol:  20 (-) A                                    R^2 =  5.63109e-05
  Excitation energy:                                             331.414581 eV
  Excited state 20 (A)                                         [not converged]
  Term symbol:  21 (-) A                                    R^2 =  9.87965e-05
  Excitation energy:                                             331.547351 eV

                    Orbital Energies (a.u.)
 --------------------------------------------------------------

 Alpha MOs
 -- Occupied --
-26.455 -26.440 -26.431 -26.166 -11.646  -1.886  -1.788  -1.762
 -1.430  -1.046  -0.963  -0.958  -0.905  -0.796  -0.793  -0.779
 -0.767  -0.736  -0.516  -0.515  -0.508

 Beta MOs
 -- Occupied --
-26.455 -26.440 -26.431 -26.166 -11.646  -1.886  -1.788  -1.762
 -1.430  -1.046  -0.963  -0.958  -0.905  -0.796  -0.793  -0.779
 -0.767  -0.736  -0.516  -0.515  -0.508

          Ground-State Mulliken Net Atomic Charges

     Atom                 Charge (a.u.)    Spin (a.u.)
  --------------------------------------------------------
      1 C                     1.212197       0.000000
      2 F                    -0.200307       0.000000
      3 F                    -0.219415       0.000000
      4 F                    -0.632139       0.000000
      5 F                    -0.160336       0.000000
  --------------------------------------------------------
  Sum of atomic charges =     0.000000

                    Cartesian Multipole Moments
 -----------------------------------------------------------------
    Charge (ESU x 10^10)
                 0.0000
    Dipole Moment (Debye)
         X       1.4399      Y       3.8529      Z      -1.7539
       Tot       4.4715
    Quadrupole Moments (Debye-Ang)
        XX     -26.1847     XY      -0.4180     YY      -8.6736
        XZ       1.7221     YZ      -3.1186     ZZ     -24.0057

 Total job time:  2103.39s(wall), 3426.26s(cpu)
        *  Thank you very much for using Q-Chem.  Have a nice day.  *
