 Q-Chem 4.3, Q-Chem, Inc., Pleasanton, CA (2015)
 Q-Chem 4.3.0 for Intel X86 Linux

User input:
--------------------------------------------------------------
$comment
XAS calculation for the 2b valence excited for water using cvs-adc(2)-x + 6-311+G* basis set
job 1 - determination of HF orbitals
$end

$molecule
0 1
6  -0.604626  3.044286  -0.180251
9  0.515357  2.451891  0.026976
9  -1.008189  3.803969  0.597745
9  -1.259464  -0.222194  0.774595
9  -1.109473  2.926649  -1.282194
$end

$rem
jobtype      sp
sym_ignore true
exchange     hf
basis        6-31G*
unrestricted true
$end

--------------------------------------------------------------

   12    -435.3122784607      3.19E-06 Convergence criterion met
 Total energy in the final basis set = -435.3122784607
 Total job time:  2.80s(wall), 11.72s(cpu)
        *  Thank you very much for using Q-Chem.  Have a nice day.  *
 Q-Chem 4.3, Q-Chem, Inc., Pleasanton, CA (2015)
 Q-Chem 4.3.0 for Intel X86 Linux

User input:
--------------------------------------------------------------

$comment
job3 - cvs-adc(2) calculation
$end

$molecule
read
$end

$rem
mem_total 3000
mem_static 1500
sym_ignore true
scf_guess read
method cvs-adc(2)
basis 6-31G*
ee_singlets 20
cc_rest_occ 1                  !only excitations from the lowest N orbitals
unrestricted  true
max_scf_cycles 200
$end
--------------------------------------------------------------

             Standard Nuclear Orientation (Angstroms)
    I     Atom           X                Y                Z
 ----------------------------------------------------------------
    1      C      -0.6046260000     3.0442860000    -0.1802510000
    2      F       0.5153570000     2.4518910000     0.0269760000
    3      F      -1.0081890000     3.8039690000     0.5977450000
    4      F      -1.2594640000    -0.2221940000     0.7745950000
    5      F      -1.1094730000     2.9266490000    -1.2821940000
 ----------------------------------------------------------------

    9    -435.3122787576      2.63E-09 Convergence criterion met
 Total energy in the final basis set = -435.3122787576
  Term symbol:  2 (-) A                                     R^2 =  4.32903e-07
  Excitation energy:                                             692.350542 eV
  Term symbol:  3 (-) A                                     R^2 =  2.02261e-07
  Excitation energy:                                             692.561915 eV
  Term symbol:  4 (-) A                                     R^2 =  3.35438e-07
  Excitation energy:                                             696.832067 eV
  Term symbol:  5 (-) A                                     R^2 =  1.13468e-07
  Excitation energy:                                             697.550272 eV
  Term symbol:  6 (-) A                                     R^2 =  3.63676e-07
  Excitation energy:                                             702.307285 eV
  Term symbol:  7 (-) A                                     R^2 =  2.29593e-07
  Excitation energy:                                             702.568711 eV
  Term symbol:  8 (-) A                                     R^2 =  3.07812e-07
  Excitation energy:                                             703.707406 eV
  Term symbol:  9 (-) A                                     R^2 =  1.72790e-07
  Excitation energy:                                             704.208091 eV
  Term symbol:  10 (-) A                                    R^2 =  2.69162e-08
  Excitation energy:                                             707.142088 eV
  Excited state 10 (A)                                             [converged]
  Term symbol:  11 (-) A                                    R^2 =  3.57393e-08
  Excitation energy:                                             707.566685 eV
  Excited state 11 (A)                                             [converged]
  Term symbol:  12 (-) A                                    R^2 =  4.63211e-08
  Excitation energy:                                             707.824194 eV
  Excited state 12 (A)                                             [converged]
  Term symbol:  13 (-) A                                    R^2 =  5.84655e-08
  Excitation energy:                                             707.955593 eV
  Excited state 13 (A)                                             [converged]
  Term symbol:  14 (-) A                                    R^2 =  3.76671e-07
  Excitation energy:                                             708.378262 eV
  Excited state 14 (A)                                             [converged]
  Term symbol:  15 (-) A                                    R^2 =  5.59587e-08
  Excitation energy:                                             708.540025 eV
  Excited state 15 (A)                                             [converged]
  Term symbol:  16 (-) A                                    R^2 =  1.69637e-07
  Excitation energy:                                             710.316345 eV
  Excited state 16 (A)                                             [converged]
  Term symbol:  17 (-) A                                    R^2 =  5.75893e-08
  Excitation energy:                                             710.323140 eV
  Excited state 17 (A)                                             [converged]
  Term symbol:  18 (-) A                                    R^2 =  5.18743e-08
  Excitation energy:                                             721.327737 eV
  Excited state 18 (A)                                             [converged]
  Term symbol:  19 (-) A                                    R^2 =  8.04595e-08
  Excitation energy:                                             722.323454 eV
  Excited state 19 (A)                                         [not converged]
  Term symbol:  20 (-) A                                    R^2 =  2.33951e-06
  Excitation energy:                                             723.167978 eV
  Excited state 20 (A)                                         [not converged]
  Term symbol:  21 (-) A                                    R^2 =  2.28005e-03
  Excitation energy:                                             724.510868 eV

                    Orbital Energies (a.u.)
 --------------------------------------------------------------

 Alpha MOs
 -- Occupied --
-26.624 -26.591 -26.553 -25.900 -11.793  -2.041  -1.933  -1.860
 -1.182  -1.159  -1.099  -1.082  -1.044  -0.923  -0.911  -0.908
 -0.862  -0.854  -0.271  -0.271  -0.255

 Beta MOs
 -- Occupied --
-26.624 -26.591 -26.553 -25.900 -11.793  -2.041  -1.933  -1.860
 -1.182  -1.159  -1.099  -1.082  -1.044  -0.923  -0.911  -0.908
 -0.862  -0.854  -0.271  -0.271  -0.255

          Ground-State Mulliken Net Atomic Charges

     Atom                 Charge (a.u.)    Spin (a.u.)
  --------------------------------------------------------
      1 C                     1.196462       0.000000
      2 F                    -0.150758       0.000000
      3 F                    -0.029592       0.000000
      4 F                    -0.917639       0.000000
      5 F                    -0.098472       0.000000
  --------------------------------------------------------
  Sum of atomic charges =     0.000000

                    Cartesian Multipole Moments
 -----------------------------------------------------------------
    Charge (ESU x 10^10)
                 0.0000
    Dipole Moment (Debye)
         X       2.5276      Y      14.3521      Z      -3.9809
       Tot      15.1070
    Quadrupole Moments (Debye-Ang)
        XX     -27.3974     XY     -10.0848     YY      19.0564
        XZ       4.4875     YZ      -1.1988     ZZ     -24.8025

 Total job time:  234.34s(wall), 1265.19s(cpu)
        *  Thank you very much for using Q-Chem.  Have a nice day.  *
