 Q-Chem 4.3, Q-Chem, Inc., Pleasanton, CA (2015)
 Q-Chem 4.3.0 for Intel X86 Linux

User input:
--------------------------------------------------------------
$comment
XAS calculation for the 2b valence excited for water using cvs-adc(2)-x + 6-311+G* basis set
job 1 - determination of HF orbitals
$end

$molecule
0 1
6  -0.550756  2.756353  -0.196776
9  0.649931  2.52354  -0.077366
9  -1.069319  3.424124  0.710678
9  -1.424054  0.450082  0.749254
9  -1.04601  2.743065  -1.260611
$end

$rem
jobtype      sp
sym_ignore true
exchange     hf
basis        6-31G*
unrestricted true
$end

--------------------------------------------------------------

    9    -435.3986635427      8.84E-06 Convergence criterion met
 Total energy in the final basis set = -435.3986635427
 Total job time:  2.51s(wall), 10.68s(cpu)
        *  Thank you very much for using Q-Chem.  Have a nice day.  *
 Q-Chem 4.3, Q-Chem, Inc., Pleasanton, CA (2015)
 Q-Chem 4.3.0 for Intel X86 Linux

User input:
--------------------------------------------------------------

$comment
job3 - cvs-adc(2) calculation
$end

$molecule
read
$end

$rem
mem_total 3000
mem_static 1500
sym_ignore true
scf_guess read
method cvs-adc(2)
basis 6-31G*
ee_singlets 20
cc_rest_occ 5                  !only excitations from the lowest N orbitals
unrestricted  true
max_scf_cycles 200
$end
--------------------------------------------------------------

             Standard Nuclear Orientation (Angstroms)
    I     Atom           X                Y                Z
 ----------------------------------------------------------------
    1      C      -0.5507560000     2.7563530000    -0.1967760000
    2      F       0.6499310000     2.5235400000    -0.0773660000
    3      F      -1.0693190000     3.4241240000     0.7106780000
    4      F      -1.4240540000     0.4500820000     0.7492540000
    5      F      -1.0460100000     2.7430650000    -1.2606110000
 ----------------------------------------------------------------

    7    -435.3986638192      7.95E-09 Convergence criterion met
 Total energy in the final basis set = -435.3986638192
  Term symbol:  2 (-) A                                     R^2 =  2.21223e-08
  Excitation energy:                                             294.873180 eV
  Term symbol:  3 (-) A                                     R^2 =  2.70825e-08
  Excitation energy:                                             296.863093 eV
  Term symbol:  4 (-) A                                     R^2 =  4.62527e-09
  Excitation energy:                                             303.591971 eV
  Term symbol:  5 (-) A                                     R^2 =  2.25633e-09
  Excitation energy:                                             304.841476 eV
  Term symbol:  6 (-) A                                     R^2 =  2.23629e-09
  Excitation energy:                                             305.260683 eV
  Term symbol:  7 (-) A                                     R^2 =  4.48313e-09
  Excitation energy:                                             306.555000 eV
  Term symbol:  8 (-) A                                     R^2 =  5.72536e-09
  Excitation energy:                                             307.028107 eV
  Term symbol:  9 (-) A                                     R^2 =  2.71539e-09
  Excitation energy:                                             308.602945 eV
  Term symbol:  10 (-) A                                    R^2 =  4.30282e-09
  Excitation energy:                                             312.832846 eV
  Excited state 10 (A)                                             [converged]
  Term symbol:  11 (-) A                                    R^2 =  1.80198e-08
  Excitation energy:                                             314.123621 eV
  Excited state 11 (A)                                             [converged]
  Term symbol:  12 (-) A                                    R^2 =  1.63910e-09
  Excitation energy:                                             314.635361 eV
  Excited state 12 (A)                                             [converged]
  Term symbol:  13 (-) A                                    R^2 =  1.41118e-08
  Excitation energy:                                             314.842520 eV
  Excited state 13 (A)                                             [converged]
  Term symbol:  14 (-) A                                    R^2 =  6.12902e-09
  Excitation energy:                                             315.004214 eV
  Excited state 14 (A)                                             [converged]
  Term symbol:  15 (-) A                                    R^2 =  2.23599e-09
  Excitation energy:                                             315.336422 eV
  Excited state 15 (A)                                             [converged]
  Term symbol:  16 (-) A                                    R^2 =  2.06565e-07
  Excitation energy:                                             316.523828 eV
  Excited state 16 (A)                                             [converged]
  Term symbol:  17 (-) A                                    R^2 =  7.86105e-09
  Excitation energy:                                             317.580053 eV
  Excited state 17 (A)                                         [not converged]
  Term symbol:  18 (-) A                                    R^2 =  1.74597e-02
  Excitation energy:                                             330.715219 eV
  Excited state 18 (A)                                         [not converged]
  Term symbol:  19 (-) A                                    R^2 =  4.33261e-05
  Excitation energy:                                             330.730521 eV
  Excited state 19 (A)                                         [not converged]
  Term symbol:  20 (-) A                                    R^2 =  1.19363e-06
  Excitation energy:                                             331.340756 eV
  Excited state 20 (A)                                         [not converged]
  Term symbol:  21 (-) A                                    R^2 =  3.14416e-05
  Excitation energy:                                             331.460250 eV

                    Orbital Energies (a.u.)
 --------------------------------------------------------------

 Alpha MOs
 -- Occupied --
-26.551 -26.522 -26.515 -26.035 -11.734  -1.974  -1.868  -1.833
 -1.273  -1.123  -1.040  -1.035  -0.982  -0.868  -0.867  -0.846
 -0.827  -0.809  -0.386  -0.385  -0.355

 Beta MOs
 -- Occupied --
-26.551 -26.522 -26.515 -26.035 -11.734  -1.974  -1.868  -1.833
 -1.273  -1.123  -1.040  -1.035  -0.982  -0.868  -0.867  -0.846
 -0.827  -0.809  -0.386  -0.385  -0.355

          Ground-State Mulliken Net Atomic Charges

     Atom                 Charge (a.u.)    Spin (a.u.)
  --------------------------------------------------------
      1 C                     1.098827       0.000000
      2 F                    -0.138787       0.000000
      3 F                    -0.150990       0.000000
      4 F                    -0.743448       0.000000
      5 F                    -0.065602       0.000000
  --------------------------------------------------------
  Sum of atomic charges =     0.000000

                    Cartesian Multipole Moments
 -----------------------------------------------------------------
    Charge (ESU x 10^10)
                 0.0000
    Dipole Moment (Debye)
         X       2.9780      Y       8.0928      Z      -3.6357
       Tot       9.3584
    Quadrupole Moments (Debye-Ang)
        XX     -28.8981     XY      -3.0487     YY       3.5335
        XZ       4.3538     YZ      -4.2397     ZZ     -24.4627

 Total job time:  2199.38s(wall), 3572.95s(cpu)
        *  Thank you very much for using Q-Chem.  Have a nice day.  *
