 Q-Chem 4.3, Q-Chem, Inc., Pleasanton, CA (2015)
 Q-Chem 4.3.0 for Intel X86 Linux

User input:
--------------------------------------------------------------
$comment
XAS calculation for the 2b valence excited for water using cvs-adc(2)-x + 6-311+G* basis set
job 1 - determination of HF orbitals
$end

$molecule
0 1
6  -0.52784  2.551848  -0.148213
9  0.602291  2.366155  -0.011194
9  -1.155458  3.226542  0.811408
9  -1.224151  1.14919  0.491668
9  -1.127873  2.539258  -1.198691
$end

$rem
jobtype      sp
sym_ignore true
exchange     hf
basis        6-31G*
unrestricted true
$end

--------------------------------------------------------------

    8    -435.5188182978      8.77E-06 Convergence criterion met
 Total energy in the final basis set = -435.5188182978
 Total job time:  2.32s(wall), 9.77s(cpu)
        *  Thank you very much for using Q-Chem.  Have a nice day.  *
 Q-Chem 4.3, Q-Chem, Inc., Pleasanton, CA (2015)
 Q-Chem 4.3.0 for Intel X86 Linux

User input:
--------------------------------------------------------------

$comment
job3 - cvs-adc(2) calculation
$end

$molecule
read
$end

$rem
mem_total 3000
mem_static 1500
sym_ignore true
scf_guess read
method cvs-adc(2)
basis 6-31G*
ee_singlets 20
cc_rest_occ 5                  !only excitations from the lowest N orbitals
unrestricted  true
max_scf_cycles 200
$end
--------------------------------------------------------------

             Standard Nuclear Orientation (Angstroms)
    I     Atom           X                Y                Z
 ----------------------------------------------------------------
    1      C      -0.5278400000     2.5518480000    -0.1482130000
    2      F       0.6022910000     2.3661550000    -0.0111940000
    3      F      -1.1554580000     3.2265420000     0.8114080000
    4      F      -1.2241510000     1.1491900000     0.4916680000
    5      F      -1.1278730000     2.5392580000    -1.1986910000
 ----------------------------------------------------------------

    6    -435.5188184308      9.50E-09 Convergence criterion met
 Total energy in the final basis set = -435.5188184308
  Term symbol:  2 (-) A                                     R^2 =  5.73511e-13
  Excitation energy:                                             296.646780 eV
  Term symbol:  3 (-) A                                     R^2 =  8.28255e-14
  Excitation energy:                                             298.609821 eV
  Term symbol:  4 (-) A                                     R^2 =  5.99965e-13
  Excitation energy:                                             302.167865 eV
  Term symbol:  5 (-) A                                     R^2 =  1.95827e-13
  Excitation energy:                                             304.335413 eV
  Term symbol:  6 (-) A                                     R^2 =  1.37491e-13
  Excitation energy:                                             304.551204 eV
  Term symbol:  7 (-) A                                     R^2 =  1.46030e-13
  Excitation energy:                                             306.083914 eV
  Term symbol:  8 (-) A                                     R^2 =  3.34671e-13
  Excitation energy:                                             307.263338 eV
  Term symbol:  9 (-) A                                     R^2 =  1.80238e-13
  Excitation energy:                                             309.280392 eV
  Term symbol:  10 (-) A                                    R^2 =  2.21648e-12
  Excitation energy:                                             311.900438 eV
  Excited state 10 (A)                                             [converged]
  Term symbol:  11 (-) A                                    R^2 =  2.33873e-13
  Excitation energy:                                             313.359724 eV
  Excited state 11 (A)                                             [converged]
  Term symbol:  12 (-) A                                    R^2 =  2.53245e-13
  Excitation energy:                                             313.720828 eV
  Excited state 12 (A)                                             [converged]
  Term symbol:  13 (-) A                                    R^2 =  2.45443e-13
  Excitation energy:                                             314.143287 eV
  Excited state 13 (A)                                             [converged]
  Term symbol:  14 (-) A                                    R^2 =  1.03009e-13
  Excitation energy:                                             314.485649 eV
  Excited state 14 (A)                                             [converged]
  Term symbol:  15 (-) A                                    R^2 =  9.81500e-14
  Excitation energy:                                             315.065004 eV
  Excited state 15 (A)                                             [converged]
  Term symbol:  16 (-) A                                    R^2 =  4.12357e-13
  Excitation energy:                                             317.424605 eV
  Excited state 16 (A)                                             [converged]
  Term symbol:  17 (-) A                                    R^2 =  3.89492e-13
  Excitation energy:                                             317.813064 eV
  Excited state 17 (A)                                             [converged]
  Term symbol:  18 (-) A                                    R^2 =  2.66585e-10
  Excitation energy:                                             330.020753 eV
  Excited state 18 (A)                                             [converged]
  Term symbol:  19 (-) A                                    R^2 =  4.74222e-10
  Excitation energy:                                             330.204570 eV
  Excited state 19 (A)                                         [not converged]
  Term symbol:  20 (-) A                                    R^2 =  1.27554e-05
  Excitation energy:                                             331.112989 eV
  Excited state 20 (A)                                         [not converged]
  Term symbol:  21 (-) A                                    R^2 =  3.15668e-05
  Excitation energy:                                             331.224804 eV

                    Orbital Energies (a.u.)
 --------------------------------------------------------------

 Alpha MOs
 -- Occupied --
-26.478 -26.443 -26.377 -26.192 -11.640  -1.906  -1.807  -1.691
 -1.455  -1.054  -0.971  -0.942  -0.914  -0.803  -0.789  -0.766
 -0.726  -0.704  -0.539  -0.536  -0.526

 Beta MOs
 -- Occupied --
-26.478 -26.443 -26.377 -26.192 -11.640  -1.906  -1.807  -1.691
 -1.455  -1.054  -0.971  -0.942  -0.914  -0.803  -0.789  -0.766
 -0.726  -0.704  -0.539  -0.536  -0.526

          Ground-State Mulliken Net Atomic Charges

     Atom                 Charge (a.u.)    Spin (a.u.)
  --------------------------------------------------------
      1 C                     1.204342       0.000000
      2 F                    -0.106120       0.000000
      3 F                    -0.318895       0.000000
      4 F                    -0.595200       0.000000
      5 F                    -0.184126       0.000000
  --------------------------------------------------------
  Sum of atomic charges =     0.000000

                    Cartesian Multipole Moments
 -----------------------------------------------------------------
    Charge (ESU x 10^10)
                 0.0000
    Dipole Moment (Debye)
         X       2.2720      Y       2.8060      Z      -1.9697
       Tot       4.1128
    Quadrupole Moments (Debye-Ang)
        XX     -26.9026     XY       2.5154     YY     -13.4980
        XZ       1.9172     YZ      -3.9833     ZZ     -24.3598

 Total job time:  1970.54s(wall), 3229.22s(cpu)
        *  Thank you very much for using Q-Chem.  Have a nice day.  *
