 Q-Chem 4.3, Q-Chem, Inc., Pleasanton, CA (2015)
 Q-Chem 4.3.0 for Intel X86 Linux

User input:
--------------------------------------------------------------
$comment
XAS calculation for the 2b valence excited for water using cvs-adc(2)-x + 6-311+G* basis set
job 1 - determination of HF orbitals
$end

$molecule
0 1
6  -0.441888  3.012535  -0.21352
9  0.583876  2.380573  -0.025201
9  -1.113098  3.286076  0.745792
9  -1.313466  0.726229  0.630461
9  -1.115797  2.585148  -1.221074
$end

$rem
jobtype      sp
sym_ignore true
exchange     hf
basis        6-31G*
unrestricted true
$end

--------------------------------------------------------------

   12    -435.3347532524      8.34E-06 Convergence criterion met
 Total energy in the final basis set = -435.3347532524
 Total job time:  3.19s(wall), 14.06s(cpu)
        *  Thank you very much for using Q-Chem.  Have a nice day.  *
 Q-Chem 4.3, Q-Chem, Inc., Pleasanton, CA (2015)
 Q-Chem 4.3.0 for Intel X86 Linux

User input:
--------------------------------------------------------------

$comment
job3 - cvs-adc(2) calculation
$end

$molecule
read
$end

$rem
mem_total 3000
mem_static 1500
sym_ignore true
scf_guess read
method cvs-adc(2)
basis 6-31G*
ee_singlets 20
cc_rest_occ 5                  !only excitations from the lowest N orbitals
unrestricted  true
max_scf_cycles 200
$end
--------------------------------------------------------------

             Standard Nuclear Orientation (Angstroms)
    I     Atom           X                Y                Z
 ----------------------------------------------------------------
    1      C      -0.4418880000     3.0125350000    -0.2135200000
    2      F       0.5838760000     2.3805730000    -0.0252010000
    3      F      -1.1130980000     3.2860760000     0.7457920000
    4      F      -1.3134660000     0.7262290000     0.6304610000
    5      F      -1.1157970000     2.5851480000    -1.2210740000
 ----------------------------------------------------------------

   10    -435.3347535194      7.60E-09 Convergence criterion met
 Total energy in the final basis set = -435.3347535194
  Term symbol:  2 (-) A                                     R^2 =  1.12073e-04
  Excitation energy:                                             293.038379 eV
  Term symbol:  3 (-) A                                     R^2 =  3.85377e-05
  Excitation energy:                                             294.809087 eV
  Term symbol:  4 (-) A                                     R^2 =  1.36402e-05
  Excitation energy:                                             303.078664 eV
  Term symbol:  5 (-) A                                     R^2 =  2.32777e-05
  Excitation energy:                                             304.885782 eV
  Term symbol:  6 (-) A                                     R^2 =  1.49947e-05
  Excitation energy:                                             305.171804 eV
  Term symbol:  7 (-) A                                     R^2 =  7.52193e-06
  Excitation energy:                                             305.352385 eV
  Term symbol:  8 (-) A                                     R^2 =  1.55899e-05
  Excitation energy:                                             306.848919 eV
  Term symbol:  9 (-) A                                     R^2 =  3.17249e-05
  Excitation energy:                                             307.248872 eV
  Term symbol:  10 (-) A                                    R^2 =  1.82630e-04
  Excitation energy:                                             312.153224 eV
  Excited state 10 (A)                                         [not converged]
  Term symbol:  11 (-) A                                    R^2 =  8.73293e-06
  Excitation energy:                                             313.694761 eV
  Excited state 11 (A)                                         [not converged]
  Term symbol:  12 (-) A                                    R^2 =  2.43928e-04
  Excitation energy:                                             313.728915 eV
  Excited state 12 (A)                                         [not converged]
  Term symbol:  13 (-) A                                    R^2 =  1.43723e-05
  Excitation energy:                                             313.874936 eV
  Excited state 13 (A)                                         [not converged]
  Term symbol:  14 (-) A                                    R^2 =  1.05777e-05
  Excitation energy:                                             314.199397 eV
  Excited state 14 (A)                                         [not converged]
  Term symbol:  15 (-) A                                    R^2 =  1.54989e-05
  Excitation energy:                                             314.485063 eV
  Excited state 15 (A)                                         [not converged]
  Term symbol:  16 (-) A                                    R^2 =  8.29957e-06
  Excitation energy:                                             318.391932 eV
  Excited state 16 (A)                                         [not converged]
  Term symbol:  17 (-) A                                    R^2 =  4.06929e-05
  Excitation energy:                                             318.959750 eV
  Excited state 17 (A)                                         [not converged]
  Term symbol:  18 (-) A                                    R^2 =  2.11455e-02
  Excitation energy:                                             323.336377 eV
  Excited state 18 (A)                                         [not converged]
  Term symbol:  19 (-) A                                    R^2 =  7.44331e-02
  Excitation energy:                                             323.382480 eV
  Excited state 19 (A)                                         [not converged]
  Term symbol:  20 (-) A                                    R^2 =  2.03272e-02
  Excitation energy:                                             323.512005 eV
  Excited state 20 (A)                                         [not converged]
  Term symbol:  21 (-) A                                    R^2 =  3.03504e-03
  Excitation energy:                                             323.514512 eV

                    Orbital Energies (a.u.)
 --------------------------------------------------------------

 Alpha MOs
 -- Occupied --
-26.548 -26.540 -26.510 -25.956 -11.743  -1.958  -1.861  -1.808
 -1.216  -1.118  -1.029  -1.018  -0.967  -0.863  -0.850  -0.832
 -0.808  -0.802  -0.325  -0.324  -0.318

 Beta MOs
 -- Occupied --
-26.548 -26.540 -26.510 -25.956 -11.743  -1.958  -1.861  -1.808
 -1.216  -1.118  -1.029  -1.018  -0.967  -0.863  -0.850  -0.832
 -0.808  -0.802  -0.325  -0.324  -0.318

          Ground-State Mulliken Net Atomic Charges

     Atom                 Charge (a.u.)    Spin (a.u.)
  --------------------------------------------------------
      1 C                     1.168949       0.000000
      2 F                    -0.078779       0.000000
      3 F                    -0.053441       0.000000
      4 F                    -0.881662       0.000000
      5 F                    -0.155067       0.000000
  --------------------------------------------------------
  Sum of atomic charges =     0.000000

                    Cartesian Multipole Moments
 -----------------------------------------------------------------
    Charge (ESU x 10^10)
                 0.0000
    Dipole Moment (Debye)
         X       3.7767      Y       9.7450      Z      -3.2368
       Tot      10.9410
    Quadrupole Moments (Debye-Ang)
        XX     -29.0605     XY      -1.0024     YY      15.0710
        XZ       3.4002     YZ      -4.0784     ZZ     -24.3070

 Total job time:  2189.67s(wall), 3548.35s(cpu)
        *  Thank you very much for using Q-Chem.  Have a nice day.  *
