 Q-Chem 4.3, Q-Chem, Inc., Pleasanton, CA (2015)
 Q-Chem 4.3.0 for Intel X86 Linux

User input:
--------------------------------------------------------------
$comment
XAS calculation for the 2b valence excited for water using cvs-adc(2)-x + 6-311+G* basis set
job 1 - determination of HF orbitals
$end

$molecule
0 1
6  -0.620548  2.469916  -0.069589
9  0.602215  2.351641  0.003128
9  -1.157296  3.285588  0.812402
9  -1.180337  1.156188  0.460695
9  -1.146204  2.553597  -1.213101
$end

$rem
jobtype      sp
sym_ignore true
exchange     hf
basis        6-31G*
unrestricted true
$end

--------------------------------------------------------------

    8    -435.6031172098      6.12E-06 Convergence criterion met
 Total energy in the final basis set = -435.6031172098
 Total job time:  2.33s(wall), 8.49s(cpu)
        *  Thank you very much for using Q-Chem.  Have a nice day.  *
 Q-Chem 4.3, Q-Chem, Inc., Pleasanton, CA (2015)
 Q-Chem 4.3.0 for Intel X86 Linux

User input:
--------------------------------------------------------------

$comment
job3 - cvs-adc(2) calculation
$end

$molecule
read
$end

$rem
mem_total 3000
mem_static 1500
sym_ignore true
scf_guess read
method cvs-adc(2)
basis 6-31G*
ee_singlets 20
cc_rest_occ 5                  !only excitations from the lowest N orbitals
unrestricted  true
max_scf_cycles 200
$end
--------------------------------------------------------------

             Standard Nuclear Orientation (Angstroms)
    I     Atom           X                Y                Z
 ----------------------------------------------------------------
    1      C      -0.6205480000     2.4699160000    -0.0695890000
    2      F       0.6022150000     2.3516410000     0.0031280000
    3      F      -1.1572960000     3.2855880000     0.8124020000
    4      F      -1.1803370000     1.1561880000     0.4606950000
    5      F      -1.1462040000     2.5535970000    -1.2131010000
 ----------------------------------------------------------------

    6    -435.6031172950      5.71E-09 Convergence criterion met
 Total energy in the final basis set = -435.6031172950
  Term symbol:  2 (-) A                                     R^2 =  9.69726e-14
  Excitation energy:                                             298.046345 eV
  Term symbol:  3 (-) A                                     R^2 =  2.68391e-14
  Excitation energy:                                             300.094833 eV
  Term symbol:  4 (-) A                                     R^2 =  1.50823e-13
  Excitation energy:                                             302.079508 eV
  Term symbol:  5 (-) A                                     R^2 =  1.03162e-13
  Excitation energy:                                             303.384687 eV
  Term symbol:  6 (-) A                                     R^2 =  6.71074e-14
  Excitation energy:                                             304.184953 eV
  Term symbol:  7 (-) A                                     R^2 =  5.12698e-14
  Excitation energy:                                             304.342551 eV
  Term symbol:  8 (-) A                                     R^2 =  5.39971e-14
  Excitation energy:                                             305.677851 eV
  Term symbol:  9 (-) A                                     R^2 =  7.70261e-14
  Excitation energy:                                             306.295281 eV
  Term symbol:  10 (-) A                                    R^2 =  1.56816e-13
  Excitation energy:                                             312.326106 eV
  Excited state 10 (A)                                             [converged]
  Term symbol:  11 (-) A                                    R^2 =  2.75935e-13
  Excitation energy:                                             313.312465 eV
  Excited state 11 (A)                                             [converged]
  Term symbol:  12 (-) A                                    R^2 =  6.92029e-14
  Excitation energy:                                             313.864026 eV
  Excited state 12 (A)                                             [converged]
  Term symbol:  13 (-) A                                    R^2 =  1.02944e-13
  Excitation energy:                                             314.154171 eV
  Excited state 13 (A)                                             [converged]
  Term symbol:  14 (-) A                                    R^2 =  1.91221e-13
  Excitation energy:                                             314.277770 eV
  Excited state 14 (A)                                             [converged]
  Term symbol:  15 (-) A                                    R^2 =  8.80421e-14
  Excitation energy:                                             314.592111 eV
  Excited state 15 (A)                                             [converged]
  Term symbol:  16 (-) A                                    R^2 =  9.07783e-13
  Excitation energy:                                             315.753827 eV
  Excited state 16 (A)                                             [converged]
  Term symbol:  17 (-) A                                    R^2 =  1.64859e-11
  Excitation energy:                                             316.154852 eV
  Excited state 17 (A)                                         [not converged]
  Term symbol:  18 (-) A                                    R^2 =  2.09876e-04
  Excitation energy:                                             330.399769 eV
  Excited state 18 (A)                                         [not converged]
  Term symbol:  19 (-) A                                    R^2 =  1.31162e-04
  Excitation energy:                                             330.431105 eV
  Excited state 19 (A)                                         [not converged]
  Term symbol:  20 (-) A                                    R^2 =  1.10165e-03
  Excitation energy:                                             330.641461 eV
  Excited state 20 (A)                                         [not converged]
  Term symbol:  21 (-) A                                    R^2 =  4.41789e-04
  Excitation energy:                                             330.667968 eV

                    Orbital Energies (a.u.)
 --------------------------------------------------------------

 Alpha MOs
 -- Occupied --
-26.426 -26.411 -26.383 -26.285 -11.623  -1.836  -1.742  -1.694
 -1.553  -1.020  -0.920  -0.907  -0.877  -0.772  -0.762  -0.744
 -0.723  -0.699  -0.624  -0.617  -0.612

 Beta MOs
 -- Occupied --
-26.426 -26.411 -26.383 -26.285 -11.623  -1.836  -1.742  -1.694
 -1.553  -1.020  -0.920  -0.907  -0.877  -0.772  -0.762  -0.744
 -0.723  -0.699  -0.624  -0.617  -0.612

          Ground-State Mulliken Net Atomic Charges

     Atom                 Charge (a.u.)    Spin (a.u.)
  --------------------------------------------------------
      1 C                     1.307749       0.000000
      2 F                    -0.229595       0.000000
      3 F                    -0.324443       0.000000
      4 F                    -0.487156       0.000000
      5 F                    -0.266555       0.000000
  --------------------------------------------------------
  Sum of atomic charges =     0.000000

                    Cartesian Multipole Moments
 -----------------------------------------------------------------
    Charge (ESU x 10^10)
                 0.0000
    Dipole Moment (Debye)
         X       1.0906      Y       1.4958      Z      -0.9367
       Tot       2.0747
    Quadrupole Moments (Debye-Ang)
        XX     -25.9486     XY       1.0730     YY     -18.8887
        XZ       0.9375     YZ      -1.8531     ZZ     -24.7250

 Total job time:  1944.06s(wall), 3265.51s(cpu)
        *  Thank you very much for using Q-Chem.  Have a nice day.  *
