 Q-Chem 4.3, Q-Chem, Inc., Pleasanton, CA (2015)
 Q-Chem 4.3.0 for Intel X86 Linux

User input:
--------------------------------------------------------------
$comment
XAS calculation for the 2b valence excited for water using cvs-adc(2)-x + 6-311+G* basis set
job 1 - determination of HF orbitals
$end

$molecule
0 1
6  -0.619533  2.522312  -0.0735
9  0.594747  2.338571  0.009295
9  -1.154695  3.289355  0.805786
9  -1.171989  1.133327  0.46085
9  -1.150024  2.552167  -1.211556
$end

$rem
jobtype      sp
sym_ignore true
exchange     hf
basis        6-31G*
unrestricted true
$end

--------------------------------------------------------------

    8    -435.5852440244      7.42E-06 Convergence criterion met
 Total energy in the final basis set = -435.5852440244
 Total job time:  17.96s(wall), 11.13s(cpu)
        *  Thank you very much for using Q-Chem.  Have a nice day.  *
 Q-Chem 4.3, Q-Chem, Inc., Pleasanton, CA (2015)
 Q-Chem 4.3.0 for Intel X86 Linux

User input:
--------------------------------------------------------------

$comment
job3 - cvs-adc(2) calculation
$end

$molecule
read
$end

$rem
mem_total 3000
mem_static 1500
sym_ignore true
scf_guess read
method cvs-adc(2)
basis 6-31G*
ee_singlets 20
cc_rest_occ 5                  !only excitations from the lowest N orbitals
unrestricted  true
max_scf_cycles 200
$end
--------------------------------------------------------------

             Standard Nuclear Orientation (Angstroms)
    I     Atom           X                Y                Z
 ----------------------------------------------------------------
    1      C      -0.6195330000     2.5223120000    -0.0735000000
    2      F       0.5947470000     2.3385710000     0.0092950000
    3      F      -1.1546950000     3.2893550000     0.8057860000
    4      F      -1.1719890000     1.1333270000     0.4608500000
    5      F      -1.1500240000     2.5521670000    -1.2115560000
 ----------------------------------------------------------------

    6    -435.5852441636      7.16E-09 Convergence criterion met
 Total energy in the final basis set = -435.5852441636
  Term symbol:  2 (-) A                                     R^2 =  6.88759e-14
  Excitation energy:                                             297.390632 eV
  Term symbol:  3 (-) A                                     R^2 =  1.29699e-13
  Excitation energy:                                             299.402165 eV
  Term symbol:  4 (-) A                                     R^2 =  1.08270e-13
  Excitation energy:                                             302.885897 eV
  Term symbol:  5 (-) A                                     R^2 =  1.36410e-13
  Excitation energy:                                             303.479345 eV
  Term symbol:  6 (-) A                                     R^2 =  5.13816e-14
  Excitation energy:                                             304.344356 eV
  Term symbol:  7 (-) A                                     R^2 =  9.84531e-14
  Excitation energy:                                             305.171110 eV
  Term symbol:  8 (-) A                                     R^2 =  5.02537e-14
  Excitation energy:                                             305.672967 eV
  Term symbol:  9 (-) A                                     R^2 =  1.12404e-13
  Excitation energy:                                             306.485925 eV
  Term symbol:  10 (-) A                                    R^2 =  7.52532e-14
  Excitation energy:                                             312.082422 eV
  Excited state 10 (A)                                             [converged]
  Term symbol:  11 (-) A                                    R^2 =  8.49279e-14
  Excitation energy:                                             313.188323 eV
  Excited state 11 (A)                                             [converged]
  Term symbol:  12 (-) A                                    R^2 =  1.41528e-13
  Excitation energy:                                             314.057953 eV
  Excited state 12 (A)                                             [converged]
  Term symbol:  13 (-) A                                    R^2 =  2.68635e-13
  Excitation energy:                                             314.208558 eV
  Excited state 13 (A)                                             [converged]
  Term symbol:  14 (-) A                                    R^2 =  3.72499e-13
  Excitation energy:                                             314.446924 eV
  Excited state 14 (A)                                             [converged]
  Term symbol:  15 (-) A                                    R^2 =  5.87374e-13
  Excitation energy:                                             314.629666 eV
  Excited state 15 (A)                                             [converged]
  Term symbol:  16 (-) A                                    R^2 =  1.97971e-12
  Excitation energy:                                             316.265372 eV
  Excited state 16 (A)                                             [converged]
  Term symbol:  17 (-) A                                    R^2 =  3.60574e-12
  Excitation energy:                                             316.681899 eV
  Excited state 17 (A)                                         [not converged]
  Term symbol:  18 (-) A                                    R^2 =  5.81616e-05
  Excitation energy:                                             330.756375 eV
  Excited state 18 (A)                                         [not converged]
  Term symbol:  19 (-) A                                    R^2 =  3.42516e-05
  Excitation energy:                                             330.786410 eV
  Excited state 19 (A)                                         [not converged]
  Term symbol:  20 (-) A                                    R^2 =  1.95144e-03
  Excitation energy:                                             330.888533 eV
  Excited state 20 (A)                                         [not converged]
  Term symbol:  21 (-) A                                    R^2 =  4.82363e-04
  Excitation energy:                                             330.919769 eV

                    Orbital Energies (a.u.)
 --------------------------------------------------------------

 Alpha MOs
 -- Occupied --
-26.429 -26.418 -26.404 -26.254 -11.629  -1.843  -1.748  -1.720
 -1.517  -1.025  -0.928  -0.920  -0.879  -0.777  -0.771  -0.751
 -0.739  -0.712  -0.591  -0.590  -0.588

 Beta MOs
 -- Occupied --
-26.429 -26.418 -26.404 -26.254 -11.629  -1.843  -1.748  -1.720
 -1.517  -1.025  -0.928  -0.920  -0.879  -0.777  -0.771  -0.751
 -0.739  -0.712  -0.591  -0.590  -0.588

          Ground-State Mulliken Net Atomic Charges

     Atom                 Charge (a.u.)    Spin (a.u.)
  --------------------------------------------------------
      1 C                     1.291671       0.000000
      2 F                    -0.224869       0.000000
      3 F                    -0.285726       0.000000
      4 F                    -0.526229       0.000000
      5 F                    -0.254847       0.000000
  --------------------------------------------------------
  Sum of atomic charges =     0.000000

                    Cartesian Multipole Moments
 -----------------------------------------------------------------
    Charge (ESU x 10^10)
                 0.0000
    Dipole Moment (Debye)
         X       1.1412      Y       2.2014      Z      -1.0063
       Tot       2.6760
    Quadrupole Moments (Debye-Ang)
        XX     -25.9717     XY       0.5202     YY     -15.7758
        XZ       0.9951     YZ      -1.7852     ZZ     -24.5797

 Total job time:  2087.72s(wall), 3382.14s(cpu)
        *  Thank you very much for using Q-Chem.  Have a nice day.  *
