 Q-Chem 4.3, Q-Chem, Inc., Pleasanton, CA (2015)
 Q-Chem 4.3.0 for Intel X86 Linux

User input:
--------------------------------------------------------------
$comment
XAS calculation for the 2b valence excited for water using cvs-adc(2)-x + 6-311+G* basis set
job 1 - determination of HF orbitals
$end

$molecule
0 1
6  -0.648452  2.722231  -0.106252
9  0.501913  2.441446  0.014494
9  -1.028413  3.728311  0.632971
9  -1.208488  0.126926  0.681613
9  -1.099372  2.867653  -1.25835
$end

$rem
jobtype      sp
sym_ignore true
exchange     hf
basis        6-31G*
unrestricted true
$end

--------------------------------------------------------------

   12    -435.3581394500      7.16E-06 Convergence criterion met
 Total energy in the final basis set = -435.3581394500
 Total job time:  3.23s(wall), 12.68s(cpu)
        *  Thank you very much for using Q-Chem.  Have a nice day.  *
 Q-Chem 4.3, Q-Chem, Inc., Pleasanton, CA (2015)
 Q-Chem 4.3.0 for Intel X86 Linux

User input:
--------------------------------------------------------------

$comment
job3 - cvs-adc(2) calculation
$end

$molecule
read
$end

$rem
mem_total 3000
mem_static 1500
sym_ignore true
scf_guess read
method cvs-adc(2)
basis 6-31G*
ee_singlets 20
cc_rest_occ 5                  !only excitations from the lowest N orbitals
unrestricted  true
max_scf_cycles 200
$end
--------------------------------------------------------------

             Standard Nuclear Orientation (Angstroms)
    I     Atom           X                Y                Z
 ----------------------------------------------------------------
    1      C      -0.6484520000     2.7222310000    -0.1062520000
    2      F       0.5019130000     2.4414460000     0.0144940000
    3      F      -1.0284130000     3.7283110000     0.6329710000
    4      F      -1.2084880000     0.1269260000     0.6816130000
    5      F      -1.0993720000     2.8676530000    -1.2583500000
 ----------------------------------------------------------------

    8    -435.3581395761      8.07E-09 Convergence criterion met
 Total energy in the final basis set = -435.3581395761
  Term symbol:  2 (-) A                                     R^2 =  1.28830e-13
  Excitation energy:                                             294.070339 eV
  Term symbol:  3 (-) A                                     R^2 =  1.53798e-13
  Excitation energy:                                             295.946110 eV
  Term symbol:  4 (-) A                                     R^2 =  5.23644e-13
  Excitation energy:                                             302.256289 eV
  Term symbol:  5 (-) A                                     R^2 =  1.48834e-13
  Excitation energy:                                             304.007976 eV
  Term symbol:  6 (-) A                                     R^2 =  6.07003e-13
  Excitation energy:                                             304.371434 eV
  Term symbol:  7 (-) A                                     R^2 =  6.59749e-14
  Excitation energy:                                             305.633406 eV
  Term symbol:  8 (-) A                                     R^2 =  2.62512e-13
  Excitation energy:                                             306.005626 eV
  Term symbol:  9 (-) A                                     R^2 =  3.07802e-13
  Excitation energy:                                             307.423590 eV
  Term symbol:  10 (-) A                                    R^2 =  8.45810e-14
  Excitation energy:                                             313.220626 eV
  Excited state 10 (A)                                             [converged]
  Term symbol:  11 (-) A                                    R^2 =  2.80103e-13
  Excitation energy:                                             313.749610 eV
  Excited state 11 (A)                                             [converged]
  Term symbol:  12 (-) A                                    R^2 =  2.10145e-13
  Excitation energy:                                             313.892886 eV
  Excited state 12 (A)                                             [converged]
  Term symbol:  13 (-) A                                    R^2 =  1.13355e-13
  Excitation energy:                                             314.018617 eV
  Excited state 13 (A)                                             [converged]
  Term symbol:  14 (-) A                                    R^2 =  1.32390e-13
  Excitation energy:                                             314.360095 eV
  Excited state 14 (A)                                             [converged]
  Term symbol:  15 (-) A                                    R^2 =  1.01165e-13
  Excitation energy:                                             314.558597 eV
  Excited state 15 (A)                                             [converged]
  Term symbol:  16 (-) A                                    R^2 =  4.93335e-13
  Excitation energy:                                             314.953447 eV
  Excited state 16 (A)                                             [converged]
  Term symbol:  17 (-) A                                    R^2 =  9.47902e-13
  Excitation energy:                                             316.046917 eV
  Excited state 17 (A)                                             [converged]
  Term symbol:  18 (-) A                                    R^2 =  6.81509e-12
  Excitation energy:                                             326.532369 eV
  Excited state 18 (A)                                             [converged]
  Term symbol:  19 (-) A                                    R^2 =  1.16844e-11
  Excitation energy:                                             326.598055 eV
  Excited state 19 (A)                                         [not converged]
  Term symbol:  20 (-) A                                    R^2 =  9.61533e-06
  Excitation energy:                                             331.095995 eV
  Excited state 20 (A)                                         [not converged]
  Term symbol:  21 (-) A                                    R^2 =  2.81898e-05
  Excitation energy:                                             331.263330 eV

                    Orbital Energies (a.u.)
 --------------------------------------------------------------

 Alpha MOs
 -- Occupied --
-26.526 -26.512 -26.491 -26.095 -11.724  -1.942  -1.841  -1.787
 -1.317  -1.105  -1.012  -1.000  -0.953  -0.856  -0.836  -0.822
 -0.801  -0.786  -0.434  -0.434  -0.371

 Beta MOs
 -- Occupied --
-26.526 -26.512 -26.491 -26.095 -11.724  -1.942  -1.841  -1.787
 -1.317  -1.105  -1.012  -1.000  -0.953  -0.856  -0.836  -0.822
 -0.801  -0.786  -0.434  -0.434  -0.371

          Ground-State Mulliken Net Atomic Charges

     Atom                 Charge (a.u.)    Spin (a.u.)
  --------------------------------------------------------
      1 C                     1.103238       0.000000
      2 F                    -0.077334       0.000000
      3 F                    -0.230638       0.000000
      4 F                    -0.634595       0.000000
      5 F                    -0.160672       0.000000
  --------------------------------------------------------
  Sum of atomic charges =     0.000000

                    Cartesian Multipole Moments
 -----------------------------------------------------------------
    Charge (ESU x 10^10)
                 0.0000
    Dipole Moment (Debye)
         X       1.9281      Y       7.3466      Z      -2.4211
       Tot       7.9720
    Quadrupole Moments (Debye-Ang)
        XX     -26.3709     XY      -3.5503     YY      -3.0024
        XZ       2.6276     YZ      -1.7423     ZZ     -24.7356

 Total job time:  2000.43s(wall), 3311.05s(cpu)
        *  Thank you very much for using Q-Chem.  Have a nice day.  *
