 Q-Chem 4.3, Q-Chem, Inc., Pleasanton, CA (2015)
 Q-Chem 4.3.0 for Intel X86 Linux

User input:
--------------------------------------------------------------
$comment
XAS calculation for the 2b valence excited for water using cvs-adc(2)-x + 6-311+G* basis set
job 1 - determination of HF orbitals
$end

$molecule
0 1
6  -0.491647  2.645567  -0.183085
9  0.851797  2.871924  -0.236459
9  -1.023182  3.177051  0.713267
9  -1.858432  0.409473  1.008246
9  -0.927844  2.823923  -1.367722
$end

$rem
jobtype      sp
sym_ignore true
exchange     hf
basis        6-31G*
unrestricted true
$end

--------------------------------------------------------------

   14    -435.3244322546      5.58E-06 Convergence criterion met
 Total energy in the final basis set = -435.3244322546
 Total job time:  3.64s(wall), 14.83s(cpu)
        *  Thank you very much for using Q-Chem.  Have a nice day.  *
 Q-Chem 4.3, Q-Chem, Inc., Pleasanton, CA (2015)
 Q-Chem 4.3.0 for Intel X86 Linux

User input:
--------------------------------------------------------------

$comment
job3 - cvs-adc(2) calculation
$end

$molecule
read
$end

$rem
mem_total 3000
mem_static 1500
sym_ignore true
scf_guess read
method cvs-adc(2)
basis 6-31G*
ee_singlets 20
cc_rest_occ 5                  !only excitations from the lowest N orbitals
unrestricted  true
max_scf_cycles 200
$end
--------------------------------------------------------------

             Standard Nuclear Orientation (Angstroms)
    I     Atom           X                Y                Z
 ----------------------------------------------------------------
    1      C      -0.4916470000     2.6455670000    -0.1830850000
    2      F       0.8517970000     2.8719240000    -0.2364590000
    3      F      -1.0231820000     3.1770510000     0.7132670000
    4      F      -1.8584320000     0.4094730000     1.0082460000
    5      F      -0.9278440000     2.8239230000    -1.3677220000
 ----------------------------------------------------------------

    9    -435.3244323736      5.57E-09 Convergence criterion met
 Total energy in the final basis set = -435.3244323736
  Term symbol:  2 (-) A                                     R^2 =  9.78300e-14
  Excitation energy:                                             293.938919 eV
  Term symbol:  3 (-) A                                     R^2 =  8.03289e-14
  Excitation energy:                                             295.747461 eV
  Term symbol:  4 (-) A                                     R^2 =  1.08635e-13
  Excitation energy:                                             300.897104 eV
  Term symbol:  5 (-) A                                     R^2 =  6.29131e-14
  Excitation energy:                                             302.992330 eV
  Term symbol:  6 (-) A                                     R^2 =  2.63559e-13
  Excitation energy:                                             303.141017 eV
  Term symbol:  7 (-) A                                     R^2 =  1.20665e-13
  Excitation energy:                                             305.223689 eV
  Term symbol:  8 (-) A                                     R^2 =  1.84370e-13
  Excitation energy:                                             306.128680 eV
  Term symbol:  9 (-) A                                     R^2 =  7.47632e-14
  Excitation energy:                                             307.737204 eV
  Term symbol:  10 (-) A                                    R^2 =  1.22308e-13
  Excitation energy:                                             313.238440 eV
  Excited state 10 (A)                                             [converged]
  Term symbol:  11 (-) A                                    R^2 =  2.42660e-13
  Excitation energy:                                             313.707622 eV
  Excited state 11 (A)                                             [converged]
  Term symbol:  12 (-) A                                    R^2 =  1.43945e-13
  Excitation energy:                                             313.827940 eV
  Excited state 12 (A)                                             [converged]
  Term symbol:  13 (-) A                                    R^2 =  1.35803e-13
  Excitation energy:                                             313.904029 eV
  Excited state 13 (A)                                             [converged]
  Term symbol:  14 (-) A                                    R^2 =  3.43472e-13
  Excitation energy:                                             314.318013 eV
  Excited state 14 (A)                                             [converged]
  Term symbol:  15 (-) A                                    R^2 =  1.62593e-13
  Excitation energy:                                             314.655604 eV
  Excited state 15 (A)                                             [converged]
  Term symbol:  16 (-) A                                    R^2 =  1.18925e-13
  Excitation energy:                                             314.673893 eV
  Excited state 16 (A)                                             [converged]
  Term symbol:  17 (-) A                                    R^2 =  8.05188e-13
  Excitation energy:                                             315.762919 eV
  Excited state 17 (A)                                             [converged]
  Term symbol:  18 (-) A                                    R^2 =  1.80035e-12
  Excitation energy:                                             324.929877 eV
  Excited state 18 (A)                                             [converged]
  Term symbol:  19 (-) A                                    R^2 =  1.07203e-12
  Excitation energy:                                             325.005380 eV
  Excited state 19 (A)                                         [not converged]
  Term symbol:  20 (-) A                                    R^2 =  5.41111e-01
  Excitation energy:                                             329.843284 eV
  Excited state 20 (A)                                         [not converged]
  Term symbol:  21 (-) A                                    R^2 =  4.96200e-06
  Excitation energy:                                             330.615594 eV

                    Orbital Energies (a.u.)
 --------------------------------------------------------------

 Alpha MOs
 -- Occupied --
-26.543 -26.510 -26.479 -26.093 -11.730  -1.950  -1.834  -1.758
 -1.316  -1.109  -1.009  -0.994  -0.953  -0.853  -0.825  -0.820
 -0.791  -0.777  -0.433  -0.433  -0.362

 Beta MOs
 -- Occupied --
-26.543 -26.510 -26.479 -26.093 -11.730  -1.950  -1.834  -1.758
 -1.316  -1.109  -1.009  -0.994  -0.953  -0.853  -0.825  -0.820
 -0.791  -0.777  -0.433  -0.433  -0.362

          Ground-State Mulliken Net Atomic Charges

     Atom                 Charge (a.u.)    Spin (a.u.)
  --------------------------------------------------------
      1 C                     1.117589       0.000000
      2 F                    -0.271808       0.000000
      3 F                    -0.031928       0.000000
      4 F                    -0.629941       0.000000
      5 F                    -0.183913       0.000000
  --------------------------------------------------------
  Sum of atomic charges =     0.000000

                    Cartesian Multipole Moments
 -----------------------------------------------------------------
    Charge (ESU x 10^10)
                 0.0000
    Dipole Moment (Debye)
         X       3.3867      Y       6.5446      Z      -3.0731
       Tot       7.9841
    Quadrupole Moments (Debye-Ang)
        XX     -32.7558     XY      -3.3919     YY      -2.7258
        XZ       5.4195     YZ      -1.4649     ZZ     -26.1688

 Total job time:  1992.37s(wall), 3268.79s(cpu)
        *  Thank you very much for using Q-Chem.  Have a nice day.  *
