 Q-Chem 4.3, Q-Chem, Inc., Pleasanton, CA (2015)
 Q-Chem 4.3.0 for Intel X86 Linux

User input:
--------------------------------------------------------------
$comment
XAS calculation for the 2b valence excited for water using cvs-adc(2)-x + 6-311+G* basis set
job 1 - determination of HF orbitals
$end

$molecule
0 1
6  -0.466875  3.023772  -0.224352
9  0.731053  2.449745  -0.067245
9  -1.135787  3.100069  0.791106
9  -1.454197  0.912618  0.680946
9  -1.094604  2.547396  -1.259532
$end

$rem
jobtype      sp
sym_ignore true
exchange     hf
basis        6-31G*
unrestricted true
$end

--------------------------------------------------------------

   14    -435.3171142303      9.99E-06 Convergence criterion met
 Total energy in the final basis set = -435.3171142303
 Total job time:  3.59s(wall), 15.69s(cpu)
        *  Thank you very much for using Q-Chem.  Have a nice day.  *
 Q-Chem 4.3, Q-Chem, Inc., Pleasanton, CA (2015)
 Q-Chem 4.3.0 for Intel X86 Linux

User input:
--------------------------------------------------------------

$comment
job3 - cvs-adc(2) calculation
$end

$molecule
read
$end

$rem
mem_total 3000
mem_static 1500
sym_ignore true
scf_guess read
method cvs-adc(2)
basis 6-31G*
ee_singlets 20
cc_rest_occ 5                  !only excitations from the lowest N orbitals
unrestricted  true
max_scf_cycles 200
$end
--------------------------------------------------------------

             Standard Nuclear Orientation (Angstroms)
    I     Atom           X                Y                Z
 ----------------------------------------------------------------
    1      C      -0.4668750000     3.0237720000    -0.2243520000
    2      F       0.7310530000     2.4497450000    -0.0672450000
    3      F      -1.1357870000     3.1000690000     0.7911060000
    4      F      -1.4541970000     0.9126180000     0.6809460000
    5      F      -1.0946040000     2.5473960000    -1.2595320000
 ----------------------------------------------------------------

    9    -435.3171154110      8.29E-09 Convergence criterion met
 Total energy in the final basis set = -435.3171154110
  Term symbol:  2 (-) A                                     R^2 =  1.55389e-07
  Excitation energy:                                             293.115893 eV
  Term symbol:  3 (-) A                                     R^2 =  6.39435e-08
  Excitation energy:                                             294.723931 eV
  Term symbol:  4 (-) A                                     R^2 =  2.19173e-07
  Excitation energy:                                             301.240289 eV
  Term symbol:  5 (-) A                                     R^2 =  1.82627e-07
  Excitation energy:                                             302.190629 eV
  Term symbol:  6 (-) A                                     R^2 =  4.12311e-08
  Excitation energy:                                             303.286225 eV
  Term symbol:  7 (-) A                                     R^2 =  8.07402e-08
  Excitation energy:                                             304.285390 eV
  Term symbol:  8 (-) A                                     R^2 =  4.34415e-07
  Excitation energy:                                             304.287870 eV
  Term symbol:  9 (-) A                                     R^2 =  3.19181e-07
  Excitation energy:                                             306.145225 eV
  Term symbol:  10 (-) A                                    R^2 =  1.19435e-07
  Excitation energy:                                             311.808715 eV
  Excited state 10 (A)                                             [converged]
  Term symbol:  11 (-) A                                    R^2 =  2.90093e-08
  Excitation energy:                                             313.096744 eV
  Excited state 11 (A)                                             [converged]
  Term symbol:  12 (-) A                                    R^2 =  9.80422e-09
  Excitation energy:                                             313.215299 eV
  Excited state 12 (A)                                             [converged]
  Term symbol:  13 (-) A                                    R^2 =  1.00267e-07
  Excitation energy:                                             313.229314 eV
  Excited state 13 (A)                                             [converged]
  Term symbol:  14 (-) A                                    R^2 =  9.27426e-08
  Excitation energy:                                             313.616766 eV
  Excited state 14 (A)                                             [converged]
  Term symbol:  15 (-) A                                    R^2 =  6.33115e-08
  Excitation energy:                                             313.886902 eV
  Excited state 15 (A)                                             [converged]
  Term symbol:  16 (-) A                                    R^2 =  1.62238e-07
  Excitation energy:                                             317.470033 eV
  Excited state 16 (A)                                             [converged]
  Term symbol:  17 (-) A                                    R^2 =  1.89552e-07
  Excitation energy:                                             318.033817 eV
  Excited state 17 (A)                                         [not converged]
  Term symbol:  18 (-) A                                    R^2 =  1.12790e-06
  Excitation energy:                                             322.444879 eV
  Excited state 18 (A)                                             [converged]
  Term symbol:  19 (-) A                                    R^2 =  8.65392e-07
  Excitation energy:                                             322.479898 eV
  Excited state 19 (A)                                         [not converged]
  Term symbol:  20 (-) A                                    R^2 =  4.61950e-02
  Excitation energy:                                             323.417936 eV
  Excited state 20 (A)                                         [not converged]
  Term symbol:  21 (-) A                                    R^2 =  1.48801e-01
  Excitation energy:                                             323.640605 eV

                    Orbital Energies (a.u.)
 --------------------------------------------------------------

 Alpha MOs
 -- Occupied --
-26.538 -26.499 -26.491 -26.018 -11.718  -1.905  -1.801  -1.765
 -1.270  -1.089  -0.978  -0.975  -0.920  -0.825  -0.818  -0.797
 -0.787  -0.779  -0.379  -0.378  -0.342

 Beta MOs
 -- Occupied --
-26.538 -26.499 -26.491 -26.018 -11.718  -1.905  -1.801  -1.765
 -1.270  -1.089  -0.978  -0.975  -0.920  -0.825  -0.818  -0.797
 -0.787  -0.779  -0.379  -0.378  -0.342

          Ground-State Mulliken Net Atomic Charges

     Atom                 Charge (a.u.)    Spin (a.u.)
  --------------------------------------------------------
      1 C                     1.200199       0.000000
      2 F                    -0.216180       0.000000
      3 F                    -0.032266       0.000000
      4 F                    -0.779405       0.000000
      5 F                    -0.172349       0.000000
  --------------------------------------------------------
  Sum of atomic charges =     0.000000

                    Cartesian Multipole Moments
 -----------------------------------------------------------------
    Charge (ESU x 10^10)
                 0.0000
    Dipole Moment (Debye)
         X       3.1572      Y       8.0038      Z      -2.9264
       Tot       9.0880
    Quadrupole Moments (Debye-Ang)
        XX     -29.7648     XY      -1.4587     YY       9.8677
        XZ       3.5176     YZ      -3.9009     ZZ     -24.4967

 Total job time:  2331.39s(wall), 3826.77s(cpu)
        *  Thank you very much for using Q-Chem.  Have a nice day.  *
