 Q-Chem 4.3, Q-Chem, Inc., Pleasanton, CA (2015)
 Q-Chem 4.3.0 for Intel X86 Linux

User input:
--------------------------------------------------------------
$comment
XAS calculation for the 2b valence excited for water using cvs-adc(2)-x + 6-311+G* basis set
job 1 - determination of HF orbitals
$end

$molecule
0 1
6  -0.5626  2.93504  -0.155461
9  0.579285  2.432493  -0.025892
9  -1.09935  3.414379  0.708651
9  -1.298989  0.502768  0.665628
9  -1.109595  2.701512  -1.236266
$end

$rem
jobtype      sp
sym_ignore true
exchange     hf
basis        6-31G*
unrestricted true
$end

--------------------------------------------------------------

    9    -435.3699652954      8.60E-06 Convergence criterion met
 Total energy in the final basis set = -435.3699652954

                    Orbital Energies (a.u.)
 --------------------------------------------------------------

 Alpha MOs
 -- Occupied --
-26.590 -26.532 -26.517 -25.965 -11.748  -2.022  -1.887  -1.831
 -1.220  -1.147  -1.061  -1.054  -1.013  -0.881  -0.874  -0.864
 -0.827  -0.814  -0.330  -0.330  -0.321

 Beta MOs
 -- Occupied --
-26.590 -26.532 -26.517 -25.965 -11.748  -2.022  -1.887  -1.831
 -1.220  -1.147  -1.061  -1.054  -1.013  -0.881  -0.874  -0.864
 -0.827  -0.814  -0.330  -0.330  -0.321

          Ground-State Mulliken Net Atomic Charges

     Atom                 Charge (a.u.)    Spin (a.u.)
  --------------------------------------------------------
      1 C                     1.106025       0.000000
      2 F                    -0.145209       0.000000
      3 F                     0.024287       0.000000
      4 F                    -0.857097       0.000000
      5 F                    -0.128006       0.000000
  --------------------------------------------------------
  Sum of atomic charges =     0.000000

                    Cartesian Multipole Moments
 -----------------------------------------------------------------
    Charge (ESU x 10^10)
                 0.0000
    Dipole Moment (Debye)
         X       2.7273      Y      10.3121      Z      -2.9862
       Tot      11.0768
    Quadrupole Moments (Debye-Ang)
        XX     -27.9986     XY      -4.9226     YY      14.5323
        XZ       3.4231     YZ      -2.2926     ZZ     -24.2600

 Total job time:  2.51s(wall), 11.40s(cpu)
        *  Thank you very much for using Q-Chem.  Have a nice day.  *
 Q-Chem 4.3, Q-Chem, Inc., Pleasanton, CA (2015)
 Q-Chem 4.3.0 for Intel X86 Linux

User input:
--------------------------------------------------------------

$comment
job3 - cvs-adc(2) calculation
$end

$molecule
read
$end

$rem
mem_total 3000
mem_static 1500
sym_ignore true
scf_guess read
method cvs-adc(2)
basis 6-31G*
ee_singlets 20
cc_rest_occ 5                  !only excitations from the lowest N orbitals
unrestricted  true
max_scf_cycles 200
$end
--------------------------------------------------------------

             Standard Nuclear Orientation (Angstroms)
    I     Atom           X                Y                Z
 ----------------------------------------------------------------
    1      C      -0.5626000000     2.9350400000    -0.1554610000
    2      F       0.5792850000     2.4324930000    -0.0258920000
    3      F      -1.0993500000     3.4143790000     0.7086510000
    4      F      -1.2989890000     0.5027680000     0.6656280000
    5      F      -1.1095950000     2.7015120000    -1.2362660000
 ----------------------------------------------------------------

    7    -435.3699655337      2.65E-09 Convergence criterion met
 Total energy in the final basis set = -435.3699655337
