 Q-Chem 4.3, Q-Chem, Inc., Pleasanton, CA (2015)
 Q-Chem 4.3.0 for Intel X86 Linux

User input:
--------------------------------------------------------------
$comment
XAS calculation for the 2b valence excited for water using cvs-adc(2)-x + 6-311+G* basis set
job 1 - determination of HF orbitals
$end

$molecule
0 1
6  -0.429142  3.002605  -0.283376
9  0.500623  2.343518  0.010791
9  -1.161731  3.298502  0.790185
9  -1.22093  0.787187  0.563981
9  -1.135984  2.584412  -1.165542
$end

$rem
jobtype      sp
sym_ignore true
exchange     hf
basis        6-31G*
unrestricted true
$end

--------------------------------------------------------------

   13    -435.3104147835      9.51E-06 Convergence criterion met
 Total energy in the final basis set = -435.3104147835
 Total job time:  7.82s(wall), 14.98s(cpu)
        *  Thank you very much for using Q-Chem.  Have a nice day.  *
 Q-Chem 4.3, Q-Chem, Inc., Pleasanton, CA (2015)
 Q-Chem 4.3.0 for Intel X86 Linux

User input:
--------------------------------------------------------------

$comment
job3 - cvs-adc(2) calculation
$end

$molecule
read
$end

$rem
mem_total 3000
mem_static 1500
sym_ignore true
scf_guess read
method cvs-adc(2)
basis 6-31G*
ee_singlets 20
cc_rest_occ 5                  !only excitations from the lowest N orbitals
unrestricted  true
max_scf_cycles 200
$end
--------------------------------------------------------------

             Standard Nuclear Orientation (Angstroms)
    I     Atom           X                Y                Z
 ----------------------------------------------------------------
    1      C      -0.4291420000     3.0026050000    -0.2833760000
    2      F       0.5006230000     2.3435180000     0.0107910000
    3      F      -1.1617310000     3.2985020000     0.7901850000
    4      F      -1.2209300000     0.7871870000     0.5639810000
    5      F      -1.1359840000     2.5844120000    -1.1655420000
 ----------------------------------------------------------------

   10    -435.3104167283      8.63E-09 Convergence criterion met
 Total energy in the final basis set = -435.3104167283
  Term symbol:  2 (-) A                                     R^2 =  1.16584e-13
  Excitation energy:                                             292.930245 eV
  Term symbol:  3 (-) A                                     R^2 =  1.80536e-13
  Excitation energy:                                             294.588122 eV
  Term symbol:  4 (-) A                                     R^2 =  3.12841e-13
  Excitation energy:                                             301.608629 eV
  Term symbol:  5 (-) A                                     R^2 =  3.55180e-13
  Excitation energy:                                             303.688374 eV
  Term symbol:  6 (-) A                                     R^2 =  5.29636e-13
  Excitation energy:                                             304.979899 eV
  Term symbol:  7 (-) A                                     R^2 =  2.15413e-13
  Excitation energy:                                             305.885164 eV
  Term symbol:  8 (-) A                                     R^2 =  3.74315e-13
  Excitation energy:                                             306.853933 eV
  Term symbol:  9 (-) A                                     R^2 =  3.94823e-13
  Excitation energy:                                             307.613794 eV
  Term symbol:  10 (-) A                                    R^2 =  3.90531e-13
  Excitation energy:                                             311.663183 eV
  Excited state 10 (A)                                             [converged]
  Term symbol:  11 (-) A                                    R^2 =  5.54832e-13
  Excitation energy:                                             312.770852 eV
  Excited state 11 (A)                                             [converged]
  Term symbol:  12 (-) A                                    R^2 =  3.27278e-13
  Excitation energy:                                             313.133036 eV
  Excited state 12 (A)                                             [converged]
  Term symbol:  13 (-) A                                    R^2 =  5.69046e-13
  Excitation energy:                                             313.192016 eV
  Excited state 13 (A)                                             [converged]
  Term symbol:  14 (-) A                                    R^2 =  4.73998e-13
  Excitation energy:                                             313.449344 eV
  Excited state 14 (A)                                             [converged]
  Term symbol:  15 (-) A                                    R^2 =  5.60158e-13
  Excitation energy:                                             313.951050 eV
  Excited state 15 (A)                                             [converged]
  Term symbol:  16 (-) A                                    R^2 =  8.27559e-10
  Excitation energy:                                             317.901929 eV
  Excited state 16 (A)                                             [converged]
  Term symbol:  17 (-) A                                    R^2 =  4.34894e-12
  Excitation energy:                                             318.412698 eV
  Excited state 17 (A)                                             [converged]
  Term symbol:  18 (-) A                                    R^2 =  8.06632e-10
  Excitation energy:                                             322.623445 eV
  Excited state 18 (A)                                             [converged]
  Term symbol:  19 (-) A                                    R^2 =  1.59445e-11
  Excitation energy:                                             322.648190 eV
  Excited state 19 (A)                                         [not converged]
  Term symbol:  20 (-) A                                    R^2 =  7.43026e-06
  Excitation energy:                                             330.742305 eV
  Excited state 20 (A)                                         [not converged]
  Term symbol:  21 (-) A                                    R^2 =  9.21497e-06
  Excitation energy:                                             330.897303 eV

                    Orbital Energies (a.u.)
 --------------------------------------------------------------

 Alpha MOs
 -- Occupied --
-26.539 -26.526 -26.471 -25.995 -11.713  -1.956  -1.856  -1.757
 -1.251  -1.106  -1.018  -0.999  -0.956  -0.851  -0.819  -0.818
 -0.773  -0.772  -0.359  -0.359  -0.335

 Beta MOs
 -- Occupied --
-26.539 -26.526 -26.471 -25.995 -11.713  -1.956  -1.856  -1.757
 -1.251  -1.106  -1.018  -0.999  -0.956  -0.851  -0.819  -0.818
 -0.773  -0.772  -0.359  -0.359  -0.335

          Ground-State Mulliken Net Atomic Charges

     Atom                 Charge (a.u.)    Spin (a.u.)
  --------------------------------------------------------
      1 C                     1.118996       0.000000
      2 F                    -0.017725       0.000000
      3 F                    -0.209263       0.000000
      4 F                    -0.819834       0.000000
      5 F                    -0.072174       0.000000
  --------------------------------------------------------
  Sum of atomic charges =     0.000000

                    Cartesian Multipole Moments
 -----------------------------------------------------------------
    Charge (ESU x 10^10)
                 0.0000
    Dipole Moment (Debye)
         X       3.5023      Y       8.3066      Z      -3.6823
       Tot       9.7378
    Quadrupole Moments (Debye-Ang)
        XX     -28.0229     XY       0.5654     YY       8.9779
        XZ       3.3499     YZ      -6.7114     ZZ     -23.6581

 Total job time:  2041.06s(wall), 3327.96s(cpu)
        *  Thank you very much for using Q-Chem.  Have a nice day.  *
