 Q-Chem 4.3, Q-Chem, Inc., Pleasanton, CA (2015)
 Q-Chem 4.3.0 for Intel X86 Linux

User input:
--------------------------------------------------------------
$comment
XAS calculation for the 2b valence excited for water using cvs-adc(2)-x + 6-311+G* basis set
job 1 - determination of HF orbitals
$end

$molecule
0 1
6  -0.518016  3.008854  -0.217201
9  0.632788  2.599267  -0.09383
9  -1.033526  3.576078  0.638385
9  -1.503757  -0.067354  0.89678
9  -1.034138  2.884889  -1.297732
$end

$rem
jobtype      sp
sym_ignore true
exchange     hf
basis        6-31G*
unrestricted true
$end

--------------------------------------------------------------

   11    -435.3199794415      5.32E-06 Convergence criterion met
 Total energy in the final basis set = -435.3199794415
 Total job time:  2.88s(wall), 11.57s(cpu)
        *  Thank you very much for using Q-Chem.  Have a nice day.  *
 Q-Chem 4.3, Q-Chem, Inc., Pleasanton, CA (2015)
 Q-Chem 4.3.0 for Intel X86 Linux

User input:
--------------------------------------------------------------

$comment
job3 - cvs-adc(2) calculation
$end

$molecule
read
$end

$rem
mem_total 3000
mem_static 1500
sym_ignore true
scf_guess read
method cvs-adc(2)
basis 6-31G*
ee_singlets 20
cc_rest_occ 5                  !only excitations from the lowest N orbitals
unrestricted  true
max_scf_cycles 200
$end
--------------------------------------------------------------

             Standard Nuclear Orientation (Angstroms)
    I     Atom           X                Y                Z
 ----------------------------------------------------------------
    1      C      -0.5180160000     3.0088540000    -0.2172010000
    2      F       0.6327880000     2.5992670000    -0.0938300000
    3      F      -1.0335260000     3.5760780000     0.6383850000
    4      F      -1.5037570000    -0.0673540000     0.8967800000
    5      F      -1.0341380000     2.8848890000    -1.2977320000
 ----------------------------------------------------------------

    7    -435.3199795165      9.11E-09 Convergence criterion met
 Total energy in the final basis set = -435.3199795165
  Term symbol:  2 (-) A                                     R^2 =  6.73370e-12
  Excitation energy:                                             294.915809 eV
  Term symbol:  3 (-) A                                     R^2 =  1.70200e-12
  Excitation energy:                                             296.851659 eV
  Term symbol:  4 (-) A                                     R^2 =  1.90616e-12
  Excitation energy:                                             303.463603 eV
  Term symbol:  5 (-) A                                     R^2 =  7.26516e-12
  Excitation energy:                                             304.912658 eV
  Term symbol:  6 (-) A                                     R^2 =  1.23683e-12
  Excitation energy:                                             305.683200 eV
  Term symbol:  7 (-) A                                     R^2 =  5.48622e-12
  Excitation energy:                                             307.648675 eV
  Term symbol:  8 (-) A                                     R^2 =  7.06532e-13
  Excitation energy:                                             307.897007 eV
  Term symbol:  9 (-) A                                     R^2 =  1.74481e-12
  Excitation energy:                                             309.713209 eV
  Term symbol:  10 (-) A                                    R^2 =  2.52874e-12
  Excitation energy:                                             313.017992 eV
  Excited state 10 (A)                                             [converged]
  Term symbol:  11 (-) A                                    R^2 =  1.37878e-11
  Excitation energy:                                             314.221417 eV
  Excited state 11 (A)                                             [converged]
  Term symbol:  12 (-) A                                    R^2 =  1.39832e-11
  Excitation energy:                                             314.653221 eV
  Excited state 12 (A)                                             [converged]
  Term symbol:  13 (-) A                                    R^2 =  1.18364e-11
  Excitation energy:                                             314.912472 eV
  Excited state 13 (A)                                             [converged]
  Term symbol:  14 (-) A                                    R^2 =  4.35129e-13
  Excitation energy:                                             315.053596 eV
  Excited state 14 (A)                                             [converged]
  Term symbol:  15 (-) A                                    R^2 =  7.29906e-12
  Excitation energy:                                             315.074885 eV
  Excited state 15 (A)                                             [converged]
  Term symbol:  16 (-) A                                    R^2 =  9.07732e-13
  Excitation energy:                                             315.447893 eV
  Excited state 16 (A)                                             [converged]
  Term symbol:  17 (-) A                                    R^2 =  2.39275e-11
  Excitation energy:                                             316.340970 eV
  Excited state 17 (A)                                         [not converged]
  Term symbol:  18 (-) A                                    R^2 =  1.66686e-02
  Excitation energy:                                             327.305891 eV
  Excited state 18 (A)                                         [not converged]
  Term symbol:  19 (-) A                                    R^2 =  4.09336e-04
  Excitation energy:                                             327.307499 eV
  Excited state 19 (A)                                         [not converged]
  Term symbol:  20 (-) A                                    R^2 =  2.58262e-01
  Excitation energy:                                             328.309983 eV
  Excited state 20 (A)                                             [converged]
  Term symbol:  21 (-) A                                    R^2 =  5.02681e-08
  Excitation energy:                                             331.495400 eV

                    Orbital Energies (a.u.)
 --------------------------------------------------------------

 Alpha MOs
 -- Occupied --
-26.616 -26.587 -26.572 -25.898 -11.787  -2.051  -1.942  -1.899
 -1.181  -1.157  -1.108  -1.101  -1.054  -0.928  -0.925  -0.908
 -0.883  -0.866  -0.269  -0.269  -0.257

 Beta MOs
 -- Occupied --
-26.616 -26.587 -26.572 -25.898 -11.787  -2.051  -1.942  -1.899
 -1.181  -1.157  -1.108  -1.101  -1.054  -0.928  -0.925  -0.908
 -0.883  -0.866  -0.269  -0.269  -0.257

          Ground-State Mulliken Net Atomic Charges

     Atom                 Charge (a.u.)    Spin (a.u.)
  --------------------------------------------------------
      1 C                     1.146401       0.000000
      2 F                    -0.114723       0.000000
      3 F                    -0.012214       0.000000
      4 F                    -0.928944       0.000000
      5 F                    -0.090520       0.000000
  --------------------------------------------------------
  Sum of atomic charges =     0.000000

                    Cartesian Multipole Moments
 -----------------------------------------------------------------
    Charge (ESU x 10^10)
                 0.0000
    Dipole Moment (Debye)
         X       4.0981      Y      13.6276      Z      -4.6810
       Tot      14.9806
    Quadrupole Moments (Debye-Ang)
        XX     -30.9036     XY      -7.8915     YY      18.5865
        XZ       6.1822     YZ      -2.0545     ZZ     -25.6287

 Total job time:  1989.59s(wall), 3302.49s(cpu)
        *  Thank you very much for using Q-Chem.  Have a nice day.  *
