 Q-Chem 4.3, Q-Chem, Inc., Pleasanton, CA (2015)
 Q-Chem 4.3.0 for Intel X86 Linux

User input:
--------------------------------------------------------------
$comment
XAS calculation for the 2b valence excited for water using cvs-adc(2)-x + 6-311+G* basis set
job 1 - determination of HF orbitals
$end

$molecule
0 1
6  -0.647366  2.956358  -0.14893
9  0.526075  2.452665  0.02313
9  -1.007362  3.794094  0.599297
9  -1.249352  -0.153117  0.756212
9  -1.104189  2.922332  -1.281231
$end

$rem
jobtype      sp
sym_ignore true
exchange     hf
basis        6-31G*
unrestricted true
$end

--------------------------------------------------------------

   14    -435.3217790015      6.90E-06 Convergence criterion met
 Total energy in the final basis set = -435.3217790015
 Total job time:  3.30s(wall), 15.42s(cpu)
        *  Thank you very much for using Q-Chem.  Have a nice day.  *
 Q-Chem 4.3, Q-Chem, Inc., Pleasanton, CA (2015)
 Q-Chem 4.3.0 for Intel X86 Linux

User input:
--------------------------------------------------------------

$comment
job3 - cvs-adc(2) calculation
$end

$molecule
read
$end

$rem
mem_total 3000
mem_static 1500
sym_ignore true
scf_guess read
method cvs-adc(2)
basis 6-31G*
ee_singlets 20
cc_rest_occ 1                  !only excitations from the lowest N orbitals
unrestricted  true
max_scf_cycles 200
$end
--------------------------------------------------------------

             Standard Nuclear Orientation (Angstroms)
    I     Atom           X                Y                Z
 ----------------------------------------------------------------
    1      C      -0.6473660000     2.9563580000    -0.1489300000
    2      F       0.5260750000     2.4526650000     0.0231300000
    3      F      -1.0073620000     3.7940940000     0.5992970000
    4      F      -1.2493520000    -0.1531170000     0.7562120000
    5      F      -1.1041890000     2.9223320000    -1.2812310000
 ----------------------------------------------------------------

    9    -435.3217791897      4.39E-09 Convergence criterion met
 Total energy in the final basis set = -435.3217791897
  Term symbol:  2 (-) A                                     R^2 =  6.40970e-13
  Excitation energy:                                             691.652972 eV
  Term symbol:  3 (-) A                                     R^2 =  1.37725e-12
  Excitation energy:                                             691.870226 eV
  Term symbol:  4 (-) A                                     R^2 =  2.52816e-13
  Excitation energy:                                             697.233889 eV
  Term symbol:  5 (-) A                                     R^2 =  6.40611e-13
  Excitation energy:                                             697.987086 eV
  Term symbol:  6 (-) A                                     R^2 =  6.81575e-13
  Excitation energy:                                             701.637795 eV
  Term symbol:  7 (-) A                                     R^2 =  1.16936e-12
  Excitation energy:                                             701.892919 eV
  Term symbol:  8 (-) A                                     R^2 =  8.70771e-13
  Excitation energy:                                             702.755208 eV
  Term symbol:  9 (-) A                                     R^2 =  8.05481e-13
  Excitation energy:                                             703.225846 eV
  Term symbol:  10 (-) A                                    R^2 =  3.69861e-13
  Excitation energy:                                             706.733648 eV
  Excited state 10 (A)                                             [converged]
  Term symbol:  11 (-) A                                    R^2 =  8.19296e-13
  Excitation energy:                                             707.216977 eV
  Excited state 11 (A)                                             [converged]
  Term symbol:  12 (-) A                                    R^2 =  4.47109e-13
  Excitation energy:                                             707.489992 eV
  Excited state 12 (A)                                             [converged]
  Term symbol:  13 (-) A                                    R^2 =  8.86369e-13
  Excitation energy:                                             707.575894 eV
  Excited state 13 (A)                                             [converged]
  Term symbol:  14 (-) A                                    R^2 =  4.65198e-13
  Excitation energy:                                             708.142022 eV
  Excited state 14 (A)                                             [converged]
  Term symbol:  15 (-) A                                    R^2 =  1.79866e-12
  Excitation energy:                                             708.208376 eV
  Excited state 15 (A)                                             [converged]
  Term symbol:  16 (-) A                                    R^2 =  8.09334e-13
  Excitation energy:                                             710.037387 eV
  Excited state 16 (A)                                             [converged]
  Term symbol:  17 (-) A                                    R^2 =  1.36032e-12
  Excitation energy:                                             710.040607 eV
  Excited state 17 (A)                                             [converged]
  Term symbol:  18 (-) A                                    R^2 =  5.91520e-11
  Excitation energy:                                             721.034141 eV
  Excited state 18 (A)                                             [converged]
  Term symbol:  19 (-) A                                    R^2 =  3.35114e-10
  Excitation energy:                                             722.077908 eV
  Excited state 19 (A)                                             [converged]
  Term symbol:  20 (-) A                                    R^2 =  7.30408e-08
  Excitation energy:                                             722.738288 eV
  Excited state 20 (A)                                         [not converged]
  Term symbol:  21 (-) A                                    R^2 =  1.26559e-05
  Excitation energy:                                             723.787825 eV

                    Orbital Energies (a.u.)
 --------------------------------------------------------------

 Alpha MOs
 -- Occupied --
-26.595 -26.570 -26.532 -25.959 -11.771  -2.007  -1.906  -1.837
 -1.207  -1.158  -1.072  -1.056  -1.015  -0.901  -0.890  -0.883
 -0.843  -0.834  -0.320  -0.320  -0.285

 Beta MOs
 -- Occupied --
-26.595 -26.570 -26.532 -25.959 -11.771  -2.007  -1.906  -1.837
 -1.207  -1.158  -1.072  -1.056  -1.015  -0.901  -0.890  -0.883
 -0.843  -0.834  -0.320  -0.320  -0.285

          Ground-State Mulliken Net Atomic Charges

     Atom                 Charge (a.u.)    Spin (a.u.)
  --------------------------------------------------------
      1 C                     1.169189       0.000000
      2 F                    -0.165362       0.000000
      3 F                    -0.064614       0.000000
      4 F                    -0.828521       0.000000
      5 F                    -0.110692       0.000000
  --------------------------------------------------------
  Sum of atomic charges =     0.000000

                    Cartesian Multipole Moments
 -----------------------------------------------------------------
    Charge (ESU x 10^10)
                 0.0000
    Dipole Moment (Debye)
         X       2.0197      Y      12.3239      Z      -3.4190
       Tot      12.9479
    Quadrupole Moments (Debye-Ang)
        XX     -26.7855     XY      -9.1078     YY      12.8148
        XZ       3.8745     YZ      -1.0223     ZZ     -24.7446

 Total job time:  214.79s(wall), 1168.58s(cpu)
        *  Thank you very much for using Q-Chem.  Have a nice day.  *
