 Q-Chem 4.3, Q-Chem, Inc., Pleasanton, CA (2015)
 Q-Chem 4.3.0 for Intel X86 Linux

User input:
--------------------------------------------------------------
$comment
XAS calculation for the 2b valence excited for water using cvs-adc(2)-x + 6-311+G* basis set
job 1 - determination of HF orbitals
$end

$molecule
0 1
6  -0.478271  2.979861  -0.234092
9  0.675957  2.382001  -0.036529
9  -1.128778  3.155874  0.780956
9  -1.369794  0.901488  0.631092
9  -1.100116  2.550527  -1.229809
$end

$rem
jobtype      sp
sym_ignore true
exchange     hf
basis        6-31G*
unrestricted true
$end

--------------------------------------------------------------

   13    -435.3376929601      7.58E-06 Convergence criterion met
 Total energy in the final basis set = -435.3376929601
 Total job time:  3.50s(wall), 14.08s(cpu)
        *  Thank you very much for using Q-Chem.  Have a nice day.  *
 Q-Chem 4.3, Q-Chem, Inc., Pleasanton, CA (2015)
 Q-Chem 4.3.0 for Intel X86 Linux

User input:
--------------------------------------------------------------

$comment
job3 - cvs-adc(2) calculation
$end

$molecule
read
$end

$rem
mem_total 3000
mem_static 1500
sym_ignore true
scf_guess read
method cvs-adc(2)
basis 6-31G*
ee_singlets 20
cc_rest_occ 5                  !only excitations from the lowest N orbitals
unrestricted  true
max_scf_cycles 200
$end
--------------------------------------------------------------

             Standard Nuclear Orientation (Angstroms)
    I     Atom           X                Y                Z
 ----------------------------------------------------------------
    1      C      -0.4782710000     2.9798610000    -0.2340920000
    2      F       0.6759570000     2.3820010000    -0.0365290000
    3      F      -1.1287780000     3.1558740000     0.7809560000
    4      F      -1.3697940000     0.9014880000     0.6310920000
    5      F      -1.1001160000     2.5505270000    -1.2298090000
 ----------------------------------------------------------------

   10    -435.3376935178      6.30E-09 Convergence criterion met
 Total energy in the final basis set = -435.3376935178
  Term symbol:  2 (-) A                                     R^2 =  3.03067e-13
  Excitation energy:                                             292.942110 eV
  Term symbol:  3 (-) A                                     R^2 =  2.06911e-13
  Excitation energy:                                             294.690038 eV
  Term symbol:  4 (-) A                                     R^2 =  7.88802e-13
  Excitation energy:                                             302.250153 eV
  Term symbol:  5 (-) A                                     R^2 =  2.93345e-13
  Excitation energy:                                             303.901475 eV
  Term symbol:  6 (-) A                                     R^2 =  2.79200e-13
  Excitation energy:                                             304.353338 eV
  Term symbol:  7 (-) A                                     R^2 =  4.69182e-13
  Excitation energy:                                             304.834712 eV
  Term symbol:  8 (-) A                                     R^2 =  3.79757e-13
  Excitation energy:                                             305.936966 eV
  Term symbol:  9 (-) A                                     R^2 =  8.02274e-13
  Excitation energy:                                             306.763637 eV
  Term symbol:  10 (-) A                                    R^2 =  1.27830e-12
  Excitation energy:                                             312.079382 eV
  Excited state 10 (A)                                             [converged]
  Term symbol:  11 (-) A                                    R^2 =  7.99875e-13
  Excitation energy:                                             313.545265 eV
  Excited state 11 (A)                                             [converged]
  Term symbol:  12 (-) A                                    R^2 =  2.75138e-12
  Excitation energy:                                             313.753810 eV
  Excited state 12 (A)                                             [converged]
  Term symbol:  13 (-) A                                    R^2 =  1.59281e-12
  Excitation energy:                                             313.829245 eV
  Excited state 13 (A)                                             [converged]
  Term symbol:  14 (-) A                                    R^2 =  1.75062e-12
  Excitation energy:                                             314.250617 eV
  Excited state 14 (A)                                             [converged]
  Term symbol:  15 (-) A                                    R^2 =  5.74382e-13
  Excitation energy:                                             314.442721 eV
  Excited state 15 (A)                                             [converged]
  Term symbol:  16 (-) A                                    R^2 =  1.26812e-10
  Excitation energy:                                             319.138505 eV
  Excited state 16 (A)                                             [converged]
  Term symbol:  17 (-) A                                    R^2 =  1.00799e-11
  Excitation energy:                                             319.679101 eV
  Excited state 17 (A)                                         [not converged]
  Term symbol:  18 (-) A                                    R^2 =  1.39949e-02
  Excitation energy:                                             323.475408 eV
  Excited state 18 (A)                                         [not converged]
  Term symbol:  19 (-) A                                    R^2 =  1.02496e-03
  Excitation energy:                                             323.481610 eV
  Excited state 19 (A)                                         [not converged]
  Term symbol:  20 (-) A                                    R^2 =  6.57203e-04
  Excitation energy:                                             323.772209 eV
  Excited state 20 (A)                                         [not converged]
  Term symbol:  21 (-) A                                    R^2 =  9.49157e-05
  Excitation energy:                                             323.772432 eV

                    Orbital Energies (a.u.)
 --------------------------------------------------------------

 Alpha MOs
 -- Occupied --
-26.533 -26.523 -26.499 -25.976 -11.735  -1.923  -1.830  -1.785
 -1.240  -1.099  -1.001  -0.993  -0.938  -0.842  -0.831  -0.812
 -0.796  -0.790  -0.346  -0.345  -0.335

 Beta MOs
 -- Occupied --
-26.533 -26.523 -26.499 -25.976 -11.735  -1.923  -1.830  -1.785
 -1.240  -1.099  -1.001  -0.993  -0.938  -0.842  -0.831  -0.812
 -0.796  -0.790  -0.346  -0.345  -0.335

          Ground-State Mulliken Net Atomic Charges

     Atom                 Charge (a.u.)    Spin (a.u.)
  --------------------------------------------------------
      1 C                     1.219468       0.000000
      2 F                    -0.191294       0.000000
      3 F                    -0.049583       0.000000
      4 F                    -0.859268       0.000000
      5 F                    -0.119322       0.000000
  --------------------------------------------------------
  Sum of atomic charges =     0.000000

                    Cartesian Multipole Moments
 -----------------------------------------------------------------
    Charge (ESU x 10^10)
                 0.0000
    Dipole Moment (Debye)
         X       3.2304      Y       8.6715      Z      -3.3747
       Tot       9.8498
    Quadrupole Moments (Debye-Ang)
        XX     -29.2944     XY      -1.6428     YY      12.1088
        XZ       3.7115     YZ      -5.0464     ZZ     -24.0244

 Total job time:  2453.63s(wall), 4024.76s(cpu)
        *  Thank you very much for using Q-Chem.  Have a nice day.  *
