 Q-Chem 4.3, Q-Chem, Inc., Pleasanton, CA (2015)
 Q-Chem 4.3.0 for Intel X86 Linux

User input:
--------------------------------------------------------------
$comment
XAS calculation for the 2b valence excited for water using cvs-adc(2)-x + 6-311+G* basis set
job 1 - determination of HF orbitals
$end

$molecule
0 1
6  -0.526023  2.841543  -0.18003
9  0.515702  2.262144  0.044333
9  -1.152316  3.347386  0.796831
9  -1.110475  0.9336  0.470255
9  -1.165149  2.546982  -1.19332
$end

$rem
jobtype      sp
sym_ignore true
exchange     hf
basis        6-31G*
unrestricted true
$end

--------------------------------------------------------------

    9    -435.4058847118      7.50E-06 Convergence criterion met
 Total energy in the final basis set = -435.4058847118
 Total job time:  2.88s(wall), 8.97s(cpu)
        *  Thank you very much for using Q-Chem.  Have a nice day.  *
 Q-Chem 4.3, Q-Chem, Inc., Pleasanton, CA (2015)
 Q-Chem 4.3.0 for Intel X86 Linux

User input:
--------------------------------------------------------------

$comment
job3 - cvs-adc(2) calculation
$end

$molecule
read
$end

$rem
mem_total 3000
mem_static 1500
sym_ignore true
scf_guess read
method cvs-adc(2)
basis 6-31G*
ee_singlets 20
cc_rest_occ 5                  !only excitations from the lowest N orbitals
unrestricted  true
max_scf_cycles 200
$end
--------------------------------------------------------------

             Standard Nuclear Orientation (Angstroms)
    I     Atom           X                Y                Z
 ----------------------------------------------------------------
    1      C      -0.5260230000     2.8415430000    -0.1800300000
    2      F       0.5157020000     2.2621440000     0.0443330000
    3      F      -1.1523160000     3.3473860000     0.7968310000
    4      F      -1.1104750000     0.9336000000     0.4702550000
    5      F      -1.1651490000     2.5469820000    -1.1933200000
 ----------------------------------------------------------------

    6    -435.4058848484      8.55E-09 Convergence criterion met
 Total energy in the final basis set = -435.4058848484
  Term symbol:  2 (-) A                                     R^2 =  6.21658e-13
  Excitation energy:                                             293.912921 eV
  Term symbol:  3 (-) A                                     R^2 =  4.20771e-13
  Excitation energy:                                             295.740311 eV
  Term symbol:  4 (-) A                                     R^2 =  9.71685e-14
  Excitation energy:                                             303.384734 eV
  Term symbol:  5 (-) A                                     R^2 =  1.48960e-13
  Excitation energy:                                             304.653506 eV
  Term symbol:  6 (-) A                                     R^2 =  1.82836e-13
  Excitation energy:                                             305.433774 eV
  Term symbol:  7 (-) A                                     R^2 =  2.32135e-13
  Excitation energy:                                             305.520616 eV
  Term symbol:  8 (-) A                                     R^2 =  7.88387e-14
  Excitation energy:                                             306.742077 eV
  Term symbol:  9 (-) A                                     R^2 =  1.83098e-13
  Excitation energy:                                             307.456256 eV
  Term symbol:  10 (-) A                                    R^2 =  3.05465e-13
  Excitation energy:                                             312.003998 eV
  Excited state 10 (A)                                             [converged]
  Term symbol:  11 (-) A                                    R^2 =  6.98656e-14
  Excitation energy:                                             313.524106 eV
  Excited state 11 (A)                                             [converged]
  Term symbol:  12 (-) A                                    R^2 =  1.47092e-13
  Excitation energy:                                             314.346156 eV
  Excited state 12 (A)                                             [converged]
  Term symbol:  13 (-) A                                    R^2 =  1.16031e-13
  Excitation energy:                                             314.394296 eV
  Excited state 13 (A)                                             [converged]
  Term symbol:  14 (-) A                                    R^2 =  1.48743e-13
  Excitation energy:                                             314.795513 eV
  Excited state 14 (A)                                             [converged]
  Term symbol:  15 (-) A                                    R^2 =  1.55458e-13
  Excitation energy:                                             314.862920 eV
  Excited state 15 (A)                                             [converged]
  Term symbol:  16 (-) A                                    R^2 =  6.82517e-13
  Excitation energy:                                             320.054898 eV
  Excited state 16 (A)                                             [converged]
  Term symbol:  17 (-) A                                    R^2 =  4.60171e-13
  Excitation energy:                                             320.588045 eV
  Excited state 17 (A)                                             [converged]
  Term symbol:  18 (-) A                                    R^2 =  6.99747e-09
  Excitation energy:                                             328.848209 eV
  Excited state 18 (A)                                         [not converged]
  Term symbol:  19 (-) A                                    R^2 =  1.52402e-06
  Excitation energy:                                             328.851394 eV
  Excited state 19 (A)                                         [not converged]
  Term symbol:  20 (-) A                                    R^2 =  1.38958e-04
  Excitation energy:                                             328.936115 eV
  Excited state 20 (A)                                         [not converged]
  Term symbol:  21 (-) A                                    R^2 =  2.55634e-03
  Excitation energy:                                             328.936392 eV

                    Orbital Energies (a.u.)
 --------------------------------------------------------------

 Alpha MOs
 -- Occupied --
-26.495 -26.493 -26.489 -26.020 -11.710  -1.908  -1.814  -1.797
 -1.290  -1.079  -0.990  -0.988  -0.926  -0.825  -0.820  -0.802
 -0.798  -0.776  -0.389  -0.388  -0.384

 Beta MOs
 -- Occupied --
-26.495 -26.493 -26.489 -26.020 -11.710  -1.908  -1.814  -1.797
 -1.290  -1.079  -0.990  -0.988  -0.926  -0.825  -0.820  -0.802
 -0.798  -0.776  -0.389  -0.388  -0.384

          Ground-State Mulliken Net Atomic Charges

     Atom                 Charge (a.u.)    Spin (a.u.)
  --------------------------------------------------------
      1 C                     1.220944       0.000000
      2 F                    -0.093725       0.000000
      3 F                    -0.182730       0.000000
      4 F                    -0.806781       0.000000
      5 F                    -0.137708       0.000000
  --------------------------------------------------------
  Sum of atomic charges =     0.000000

                    Cartesian Multipole Moments
 -----------------------------------------------------------------
    Charge (ESU x 10^10)
                 0.0000
    Dipole Moment (Debye)
         X       2.4475      Y       7.1468      Z      -2.5889
       Tot       7.9856
    Quadrupole Moments (Debye-Ang)
        XX     -26.8086     XY      -0.7668     YY       4.6791
        XZ       2.3354     YZ      -4.3301     ZZ     -23.7151

 Total job time:  1663.94s(wall), 2781.10s(cpu)
        *  Thank you very much for using Q-Chem.  Have a nice day.  *
