 Q-Chem 4.3, Q-Chem, Inc., Pleasanton, CA (2015)
 Q-Chem 4.3.0 for Intel X86 Linux

User input:
--------------------------------------------------------------
$comment
XAS calculation for the 2b valence excited for water using cvs-adc(2)-x + 6-311+G* basis set
job 1 - determination of HF orbitals
$end

$molecule
0 1
6  -0.492472  2.910796  -0.205452
9  0.660086  2.358601  -0.023159
9  -1.136629  3.163232  0.787547
9  -1.32061  0.976463  0.586535
9  -1.115399  2.53514  -1.222859
$end

$rem
jobtype      sp
sym_ignore true
exchange     hf
basis        6-31G*
unrestricted true
$end

--------------------------------------------------------------

   12    -435.3689572895      3.72E-06 Convergence criterion met
 Total energy in the final basis set = -435.3689572895
 Total job time:  3.25s(wall), 14.26s(cpu)
        *  Thank you very much for using Q-Chem.  Have a nice day.  *
 Q-Chem 4.3, Q-Chem, Inc., Pleasanton, CA (2015)
 Q-Chem 4.3.0 for Intel X86 Linux

User input:
--------------------------------------------------------------

$comment
job3 - cvs-adc(2) calculation
$end

$molecule
read
$end

$rem
mem_total 3000
mem_static 1500
sym_ignore true
scf_guess read
method cvs-adc(2)
basis 6-31G*
ee_singlets 20
cc_rest_occ 5                  !only excitations from the lowest N orbitals
unrestricted  true
max_scf_cycles 200
$end
--------------------------------------------------------------

             Standard Nuclear Orientation (Angstroms)
    I     Atom           X                Y                Z
 ----------------------------------------------------------------
    1      C      -0.4924720000     2.9107960000    -0.2054520000
    2      F       0.6600860000     2.3586010000    -0.0231590000
    3      F      -1.1366290000     3.1632320000     0.7875470000
    4      F      -1.3206100000     0.9764630000     0.5865350000
    5      F      -1.1153990000     2.5351400000    -1.2228590000
 ----------------------------------------------------------------

    9    -435.3689573776      4.21E-09 Convergence criterion met
 Total energy in the final basis set = -435.3689573776
  Term symbol:  2 (-) A                                     R^2 =  2.76202e-13
  Excitation energy:                                             293.252526 eV
  Term symbol:  3 (-) A                                     R^2 =  2.00352e-13
  Excitation energy:                                             295.063839 eV
  Term symbol:  4 (-) A                                     R^2 =  1.91391e-13
  Excitation energy:                                             303.005148 eV
  Term symbol:  5 (-) A                                     R^2 =  2.44334e-13
  Excitation energy:                                             304.090501 eV
  Term symbol:  6 (-) A                                     R^2 =  1.87928e-13
  Excitation energy:                                             305.165597 eV
  Term symbol:  7 (-) A                                     R^2 =  3.07034e-13
  Excitation energy:                                             305.330239 eV
  Term symbol:  8 (-) A                                     R^2 =  1.37017e-13
  Excitation energy:                                             306.161255 eV
  Term symbol:  9 (-) A                                     R^2 =  6.40154e-14
  Excitation energy:                                             307.256797 eV
  Term symbol:  10 (-) A                                    R^2 =  6.05853e-13
  Excitation energy:                                             312.131089 eV
  Excited state 10 (A)                                             [converged]
  Term symbol:  11 (-) A                                    R^2 =  1.25449e-13
  Excitation energy:                                             313.618545 eV
  Excited state 11 (A)                                             [converged]
  Term symbol:  12 (-) A                                    R^2 =  1.77489e-13
  Excitation energy:                                             314.210093 eV
  Excited state 12 (A)                                             [converged]
  Term symbol:  13 (-) A                                    R^2 =  1.78329e-13
  Excitation energy:                                             314.260371 eV
  Excited state 13 (A)                                             [converged]
  Term symbol:  14 (-) A                                    R^2 =  4.04565e-13
  Excitation energy:                                             314.660342 eV
  Excited state 14 (A)                                             [converged]
  Term symbol:  15 (-) A                                    R^2 =  3.78349e-13
  Excitation energy:                                             314.829576 eV
  Excited state 15 (A)                                             [converged]
  Term symbol:  16 (-) A                                    R^2 =  2.35525e-12
  Excitation energy:                                             320.209406 eV
  Excited state 16 (A)                                             [converged]
  Term symbol:  17 (-) A                                    R^2 =  7.56124e-13
  Excitation energy:                                             320.750635 eV
  Excited state 17 (A)                                             [converged]
  Term symbol:  18 (-) A                                    R^2 =  4.18056e-07
  Excitation energy:                                             331.937303 eV
  Excited state 18 (A)                                             [converged]
  Term symbol:  19 (-) A                                    R^2 =  8.12502e-07
  Excitation energy:                                             332.099539 eV
  Excited state 19 (A)                                         [not converged]
  Term symbol:  20 (-) A                                    R^2 =  4.09327e-05
  Excitation energy:                                             332.293192 eV
  Excited state 20 (A)                                         [not converged]
  Term symbol:  21 (-) A                                    R^2 =  4.21086e-05
  Excitation energy:                                             332.390220 eV

                    Orbital Energies (a.u.)
 --------------------------------------------------------------

 Alpha MOs
 -- Occupied --
-26.518 -26.509 -26.497 -25.984 -11.729  -1.918  -1.823  -1.792
 -1.254  -1.091  -0.997  -0.993  -0.933  -0.834  -0.828  -0.808
 -0.798  -0.785  -0.357  -0.356  -0.353

 Beta MOs
 -- Occupied --
-26.518 -26.509 -26.497 -25.984 -11.729  -1.918  -1.823  -1.792
 -1.254  -1.091  -0.997  -0.993  -0.933  -0.834  -0.828  -0.808
 -0.798  -0.785  -0.357  -0.356  -0.353

          Ground-State Mulliken Net Atomic Charges

     Atom                 Charge (a.u.)    Spin (a.u.)
  --------------------------------------------------------
      1 C                     1.235732       0.000000
      2 F                    -0.183013       0.000000
      3 F                    -0.062101       0.000000
      4 F                    -0.856254       0.000000
      5 F                    -0.134364       0.000000
  --------------------------------------------------------
  Sum of atomic charges =     0.000000

                    Cartesian Multipole Moments
 -----------------------------------------------------------------
    Charge (ESU x 10^10)
                 0.0000
    Dipole Moment (Debye)
         X       3.0683      Y       8.0633      Z      -3.0524
       Tot       9.1514
    Quadrupole Moments (Debye-Ang)
        XX     -28.7357     XY      -1.1393     YY       9.6804
        XZ       3.2555     YZ      -4.6249     ZZ     -23.9585

 Total job time:  2337.25s(wall), 3805.83s(cpu)
        *  Thank you very much for using Q-Chem.  Have a nice day.  *
