 Q-Chem 4.3, Q-Chem, Inc., Pleasanton, CA (2015)
 Q-Chem 4.3.0 for Intel X86 Linux

User input:
--------------------------------------------------------------
$comment
XAS calculation for the 2b valence excited for water using cvs-adc(2)-x + 6-311+G* basis set
job 1 - determination of HF orbitals
$end

$molecule
0 1
6  -0.425492  2.867386  -0.24325
9  0.678166  2.524183  -0.099281
9  -1.091885  3.199827  0.749016
9  -1.509402  0.683479  0.755662
9  -1.033011  2.653201  -1.253272
$end

$rem
jobtype      sp
sym_ignore true
exchange     hf
basis        6-31G*
unrestricted true
$end

--------------------------------------------------------------

   10    -435.3748903611      7.37E-06 Convergence criterion met
 Total energy in the final basis set = -435.3748903611
 Total job time:  2.77s(wall), 11.79s(cpu)
        *  Thank you very much for using Q-Chem.  Have a nice day.  *
 Q-Chem 4.3, Q-Chem, Inc., Pleasanton, CA (2015)
 Q-Chem 4.3.0 for Intel X86 Linux

User input:
--------------------------------------------------------------

$comment
job3 - cvs-adc(2) calculation
$end

$molecule
read
$end

$rem
mem_total 3000
mem_static 1500
sym_ignore true
scf_guess read
method cvs-adc(2)
basis 6-31G*
ee_singlets 20
cc_rest_occ 5                  !only excitations from the lowest N orbitals
unrestricted  true
max_scf_cycles 200
$end
--------------------------------------------------------------

             Standard Nuclear Orientation (Angstroms)
    I     Atom           X                Y                Z
 ----------------------------------------------------------------
    1      C      -0.4254920000     2.8673860000    -0.2432500000
    2      F       0.6781660000     2.5241830000    -0.0992810000
    3      F      -1.0918850000     3.1998270000     0.7490160000
    4      F      -1.5094020000     0.6834790000     0.7556620000
    5      F      -1.0330110000     2.6532010000    -1.2532720000
 ----------------------------------------------------------------

    7    -435.3748904372      4.40E-09 Convergence criterion met
 Total energy in the final basis set = -435.3748904372
  Term symbol:  2 (-) A                                     R^2 =  1.83960e-13
  Excitation energy:                                             294.508680 eV
  Term symbol:  3 (-) A                                     R^2 =  1.27834e-13
  Excitation energy:                                             296.394221 eV
  Term symbol:  4 (-) A                                     R^2 =  2.34678e-13
  Excitation energy:                                             303.894681 eV
  Term symbol:  5 (-) A                                     R^2 =  1.78018e-13
  Excitation energy:                                             305.430860 eV
  Term symbol:  6 (-) A                                     R^2 =  9.68305e-14
  Excitation energy:                                             305.568549 eV
  Term symbol:  7 (-) A                                     R^2 =  1.40728e-13
  Excitation energy:                                             307.188923 eV
  Term symbol:  8 (-) A                                     R^2 =  2.43885e-13
  Excitation energy:                                             307.530196 eV
  Term symbol:  9 (-) A                                     R^2 =  2.31051e-13
  Excitation energy:                                             309.307489 eV
  Term symbol:  10 (-) A                                    R^2 =  4.97017e-13
  Excitation energy:                                             312.529933 eV
  Excited state 10 (A)                                             [converged]
  Term symbol:  11 (-) A                                    R^2 =  1.23674e-13
  Excitation energy:                                             314.110906 eV
  Excited state 11 (A)                                             [converged]
  Term symbol:  12 (-) A                                    R^2 =  3.17409e-13
  Excitation energy:                                             314.392927 eV
  Excited state 12 (A)                                             [converged]
  Term symbol:  13 (-) A                                    R^2 =  2.05360e-13
  Excitation energy:                                             314.800628 eV
  Excited state 13 (A)                                             [converged]
  Term symbol:  14 (-) A                                    R^2 =  2.46114e-13
  Excitation energy:                                             314.807739 eV
  Excited state 14 (A)                                             [converged]
  Term symbol:  15 (-) A                                    R^2 =  2.89700e-13
  Excitation energy:                                             315.295672 eV
  Excited state 15 (A)                                             [converged]
  Term symbol:  16 (-) A                                    R^2 =  7.17142e-11
  Excitation energy:                                             317.702662 eV
  Excited state 16 (A)                                             [converged]
  Term symbol:  17 (-) A                                    R^2 =  9.30211e-11
  Excitation energy:                                             318.537370 eV
  Excited state 17 (A)                                             [converged]
  Term symbol:  18 (-) A                                    R^2 =  7.63408e-09
  Excitation energy:                                             331.488582 eV
  Excited state 18 (A)                                             [converged]
  Term symbol:  19 (-) A                                    R^2 =  1.47661e-08
  Excitation energy:                                             331.668048 eV
  Excited state 19 (A)                                             [converged]
  Term symbol:  20 (-) A                                    R^2 =  3.81269e-07
  Excitation energy:                                             332.149341 eV
  Excited state 20 (A)                                             [converged]
  Term symbol:  21 (-) A                                    R^2 =  5.92193e-07
  Excitation energy:                                             332.281405 eV

                    Orbital Energies (a.u.)
 --------------------------------------------------------------

 Alpha MOs
 -- Occupied --
-26.570 -26.548 -26.513 -25.958 -11.745  -1.997  -1.897  -1.838
 -1.216  -1.137  -1.062  -1.047  -1.002  -0.883  -0.874  -0.865
 -0.825  -0.815  -0.325  -0.324  -0.319

 Beta MOs
 -- Occupied --
-26.570 -26.548 -26.513 -25.958 -11.745  -1.997  -1.897  -1.838
 -1.216  -1.137  -1.062  -1.047  -1.002  -0.883  -0.874  -0.865
 -0.825  -0.815  -0.325  -0.324  -0.319

          Ground-State Mulliken Net Atomic Charges

     Atom                 Charge (a.u.)    Spin (a.u.)
  --------------------------------------------------------
      1 C                     1.108804       0.000000
      2 F                    -0.041452       0.000000
      3 F                    -0.114371       0.000000
      4 F                    -0.871409       0.000000
      5 F                    -0.081572       0.000000
  --------------------------------------------------------
  Sum of atomic charges =     0.000000

                    Cartesian Multipole Moments
 -----------------------------------------------------------------
    Charge (ESU x 10^10)
                 0.0000
    Dipole Moment (Debye)
         X       4.7324      Y       9.0758      Z      -4.2639
       Tot      11.0881
    Quadrupole Moments (Debye-Ang)
        XX     -31.2057     XY       0.1478     YY      10.2550
        XZ       5.1120     YZ      -5.6967     ZZ     -24.6172

 Total job time:  1898.79s(wall), 3072.19s(cpu)
        *  Thank you very much for using Q-Chem.  Have a nice day.  *
