 Q-Chem 4.3, Q-Chem, Inc., Pleasanton, CA (2015)
 Q-Chem 4.3.0 for Intel X86 Linux

User input:
--------------------------------------------------------------
$comment
XAS calculation for the 2b valence excited for water using cvs-adc(2)-x + 6-311+G* basis set
job 1 - determination of HF orbitals
$end

$molecule
0 1
6  -0.453148  2.991066  -0.296735
9  0.688775  2.635537  -0.121013
9  -1.027576  3.515668  0.664864
9  -1.610694  -0.024287  0.951211
9  -0.999165  2.866834  -1.307518
$end

$rem
jobtype      sp
sym_ignore true
exchange     hf
basis        6-31G*
unrestricted true
$end

--------------------------------------------------------------

   11    -435.3180250707      9.34E-06 Convergence criterion met
 Total energy in the final basis set = -435.3180250707
 Total job time:  2.93s(wall), 13.24s(cpu)
        *  Thank you very much for using Q-Chem.  Have a nice day.  *
 Q-Chem 4.3, Q-Chem, Inc., Pleasanton, CA (2015)
 Q-Chem 4.3.0 for Intel X86 Linux

User input:
--------------------------------------------------------------

$comment
job3 - cvs-adc(2) calculation
$end

$molecule
read
$end

$rem
mem_total 3000
mem_static 1500
sym_ignore true
scf_guess read
method cvs-adc(2)
basis 6-31G*
ee_singlets 20
cc_rest_occ 5                  !only excitations from the lowest N orbitals
unrestricted  true
max_scf_cycles 200
$end
--------------------------------------------------------------

             Standard Nuclear Orientation (Angstroms)
    I     Atom           X                Y                Z
 ----------------------------------------------------------------
    1      C      -0.4531480000     2.9910660000    -0.2967350000
    2      F       0.6887750000     2.6355370000    -0.1210130000
    3      F      -1.0275760000     3.5156680000     0.6648640000
    4      F      -1.6106940000    -0.0242870000     0.9512110000
    5      F      -0.9991650000     2.8668340000    -1.3075180000
 ----------------------------------------------------------------

    7    -435.3180252323      5.79E-09 Convergence criterion met
 Total energy in the final basis set = -435.3180252323
  Term symbol:  2 (-) A                                     R^2 =  7.11129e-12
  Excitation energy:                                             294.829777 eV
  Term symbol:  3 (-) A                                     R^2 =  5.36726e-12
  Excitation energy:                                             296.752682 eV
  Term symbol:  4 (-) A                                     R^2 =  3.97298e-13
  Excitation energy:                                             303.254515 eV
  Term symbol:  5 (-) A                                     R^2 =  2.04017e-12
  Excitation energy:                                             304.758195 eV
  Term symbol:  6 (-) A                                     R^2 =  1.05696e-12
  Excitation energy:                                             305.381006 eV
  Term symbol:  7 (-) A                                     R^2 =  1.56678e-12
  Excitation energy:                                             307.481587 eV
  Term symbol:  8 (-) A                                     R^2 =  4.04521e-13
  Excitation energy:                                             307.570679 eV
  Term symbol:  9 (-) A                                     R^2 =  2.40132e-13
  Excitation energy:                                             309.576655 eV
  Term symbol:  10 (-) A                                    R^2 =  4.76284e-12
  Excitation energy:                                             313.015671 eV
  Excited state 10 (A)                                             [converged]
  Term symbol:  11 (-) A                                    R^2 =  9.69093e-12
  Excitation energy:                                             314.247070 eV
  Excited state 11 (A)                                             [converged]
  Term symbol:  12 (-) A                                    R^2 =  1.49173e-12
  Excitation energy:                                             314.695986 eV
  Excited state 12 (A)                                             [converged]
  Term symbol:  13 (-) A                                    R^2 =  5.40705e-12
  Excitation energy:                                             314.911787 eV
  Excited state 13 (A)                                             [converged]
  Term symbol:  14 (-) A                                    R^2 =  2.37974e-12
  Excitation energy:                                             315.081586 eV
  Excited state 14 (A)                                             [converged]
  Term symbol:  15 (-) A                                    R^2 =  2.96900e-12
  Excitation energy:                                             315.147325 eV
  Excited state 15 (A)                                             [converged]
  Term symbol:  16 (-) A                                    R^2 =  1.06682e-12
  Excitation energy:                                             315.476900 eV
  Excited state 16 (A)                                             [converged]
  Term symbol:  17 (-) A                                    R^2 =  3.65800e-12
  Excitation energy:                                             316.312260 eV
  Excited state 17 (A)                                         [not converged]
  Term symbol:  18 (-) A                                    R^2 =  2.00804e-01
  Excitation energy:                                             327.159647 eV
  Excited state 18 (A)                                         [not converged]
  Term symbol:  19 (-) A                                    R^2 =  3.03108e-01
  Excitation energy:                                             327.674853 eV
  Excited state 19 (A)                                             [converged]
  Term symbol:  20 (-) A                                    R^2 =  8.20720e-07
  Excitation energy:                                             331.515903 eV
  Excited state 20 (A)                                         [not converged]
  Term symbol:  21 (-) A                                    R^2 =  2.62635e-05
  Excitation energy:                                             331.599896 eV

                    Orbital Energies (a.u.)
 --------------------------------------------------------------

 Alpha MOs
 -- Occupied --
-26.620 -26.591 -26.574 -25.889 -11.792  -2.047  -1.942  -1.896
 -1.183  -1.151  -1.107  -1.099  -1.053  -0.930  -0.924  -0.911
 -0.883  -0.868  -0.262  -0.262  -0.252

 Beta MOs
 -- Occupied --
-26.620 -26.591 -26.574 -25.889 -11.792  -2.047  -1.942  -1.896
 -1.183  -1.151  -1.107  -1.099  -1.053  -0.930  -0.924  -0.911
 -0.883  -0.868  -0.262  -0.262  -0.252

          Ground-State Mulliken Net Atomic Charges

     Atom                 Charge (a.u.)    Spin (a.u.)
  --------------------------------------------------------
      1 C                     1.168359       0.000000
      2 F                    -0.089610       0.000000
      3 F                    -0.121662       0.000000
      4 F                    -0.938830       0.000000
      5 F                    -0.018257       0.000000
  --------------------------------------------------------
  Sum of atomic charges =     0.000000

                    Cartesian Multipole Moments
 -----------------------------------------------------------------
    Charge (ESU x 10^10)
                 0.0000
    Dipole Moment (Debye)
         X       5.0710      Y      13.2735      Z      -5.8594
       Tot      15.3699
    Quadrupole Moments (Debye-Ang)
        XX     -32.8444     XY      -6.1303     YY      17.0737
        XZ       7.6729     YZ      -4.9601     ZZ     -25.6317

 Total job time:  1821.09s(wall), 3007.48s(cpu)
        *  Thank you very much for using Q-Chem.  Have a nice day.  *
