 Q-Chem 4.3, Q-Chem, Inc., Pleasanton, CA (2015)
 Q-Chem 4.3.0 for Intel X86 Linux

User input:
--------------------------------------------------------------
$comment
XAS calculation for the 2b valence excited for water using cvs-adc(2)-x + 6-311+G* basis set
job 1 - determination of HF orbitals
$end

$molecule
0 1
6  -0.619931  2.752054  -0.094819
9  0.59122  2.310529  0.019168
9  -1.147876  3.272126  0.786364
9  -1.179132  1.045024  0.48518
9  -1.156228  2.546259  -1.208948
$end

$rem
jobtype      sp
sym_ignore true
exchange     hf
basis        6-31G*
unrestricted true
$end

--------------------------------------------------------------

    8    -435.4655334098      7.98E-06 Convergence criterion met
 Total energy in the final basis set = -435.4655334098

                    Orbital Energies (a.u.)
 --------------------------------------------------------------

 Alpha MOs
 -- Occupied --
-26.503 -26.455 -26.433 -26.107 -11.675  -1.923  -1.801  -1.742
 -1.369  -1.071  -0.979  -0.968  -0.925  -0.806  -0.799  -0.795
 -0.762  -0.742  -0.463  -0.462  -0.453

 Beta MOs
 -- Occupied --
-26.503 -26.455 -26.433 -26.107 -11.675  -1.923  -1.801  -1.742
 -1.369  -1.071  -0.979  -0.968  -0.925  -0.806  -0.799  -0.795
 -0.762  -0.742  -0.463  -0.462  -0.453

          Ground-State Mulliken Net Atomic Charges

     Atom                 Charge (a.u.)    Spin (a.u.)
  --------------------------------------------------------
      1 C                     1.211482       0.000000
      2 F                    -0.243946       0.000000
      3 F                    -0.067303       0.000000
      4 F                    -0.697276       0.000000
      5 F                    -0.202957       0.000000
  --------------------------------------------------------
  Sum of atomic charges =     0.000000

                    Cartesian Multipole Moments
 -----------------------------------------------------------------
    Charge (ESU x 10^10)
                 0.0000
    Dipole Moment (Debye)
         X       1.3026      Y       5.6223      Z      -1.4275
       Tot       5.9452
    Quadrupole Moments (Debye-Ang)
        XX     -26.2389     XY      -2.5345     YY      -0.4968
        XZ       1.4454     YZ      -1.5640     ZZ     -23.9982

 Total job time:  2.38s(wall), 8.63s(cpu)
        *  Thank you very much for using Q-Chem.  Have a nice day.  *
 Q-Chem 4.3, Q-Chem, Inc., Pleasanton, CA (2015)
 Q-Chem 4.3.0 for Intel X86 Linux

User input:
--------------------------------------------------------------

$comment
job3 - cvs-adc(2) calculation
$end

$molecule
read
$end

$rem
mem_total 3000
mem_static 1500
sym_ignore true
scf_guess read
method cvs-adc(2)
basis 6-31G*
ee_singlets 20
cc_rest_occ 5                  !only excitations from the lowest N orbitals
unrestricted  true
max_scf_cycles 200
$end
--------------------------------------------------------------

             Standard Nuclear Orientation (Angstroms)
    I     Atom           X                Y                Z
 ----------------------------------------------------------------
    1      C      -0.6199310000     2.7520540000    -0.0948190000
    2      F       0.5912200000     2.3105290000     0.0191680000
    3      F      -1.1478760000     3.2721260000     0.7863640000
    4      F      -1.1791320000     1.0450240000     0.4851800000
    5      F      -1.1562280000     2.5462590000    -1.2089480000
 ----------------------------------------------------------------

    7    -435.4655335701      5.17E-09 Convergence criterion met
 Total energy in the final basis set = -435.4655335701
