 Q-Chem 4.3, Q-Chem, Inc., Pleasanton, CA (2015)
 Q-Chem 4.3.0 for Intel X86 Linux

User input:
--------------------------------------------------------------
$comment
XAS calculation for the 2b valence excited for water using cvs-adc(2)-x + 6-311+G* basis set
job 1 - determination of HF orbitals
$end

$molecule
0 1
6  -0.732482  2.387299  -0.005507
9  0.610086  2.333514  0.007617
9  -1.124522  3.297665  0.775176
9  -1.116989  1.175233  0.418784
9  -1.130728  2.555831  -1.198478
$end

$rem
jobtype      sp
sym_ignore true
exchange     hf
basis        6-31G*
unrestricted true
$end

--------------------------------------------------------------

    8    -435.6390806021      3.41E-06 Convergence criterion met
 Total energy in the final basis set = -435.6390806021
 Total job time:  2.31s(wall), 9.88s(cpu)
        *  Thank you very much for using Q-Chem.  Have a nice day.  *
 Q-Chem 4.3, Q-Chem, Inc., Pleasanton, CA (2015)
 Q-Chem 4.3.0 for Intel X86 Linux

User input:
--------------------------------------------------------------

$comment
job3 - cvs-adc(2) calculation
$end

$molecule
read
$end

$rem
mem_total 3000
mem_static 1500
sym_ignore true
scf_guess read
method cvs-adc(2)
basis 6-31G*
ee_singlets 20
cc_rest_occ 5                  !only excitations from the lowest N orbitals
unrestricted  true
max_scf_cycles 200
$end
--------------------------------------------------------------

             Standard Nuclear Orientation (Angstroms)
    I     Atom           X                Y                Z
 ----------------------------------------------------------------
    1      C      -0.7324820000     2.3872990000    -0.0055070000
    2      F       0.6100860000     2.3335140000     0.0076170000
    3      F      -1.1245220000     3.2976650000     0.7751760000
    4      F      -1.1169890000     1.1752330000     0.4187840000
    5      F      -1.1307280000     2.5558310000    -1.1984780000
 ----------------------------------------------------------------

    5    -435.6390805488      3.78E-09 Convergence criterion met
 Total energy in the final basis set = -435.6390805488
  Term symbol:  2 (-) A                                     R^2 =  4.93897e-14
  Excitation energy:                                             300.470157 eV
  Term symbol:  3 (-) A                                     R^2 =  1.17167e-13
  Excitation energy:                                             301.504821 eV
  Term symbol:  4 (-) A                                     R^2 =  7.66034e-14
  Excitation energy:                                             302.583729 eV
  Term symbol:  5 (-) A                                     R^2 =  7.47517e-14
  Excitation energy:                                             302.768869 eV
  Term symbol:  6 (-) A                                     R^2 =  1.16358e-13
  Excitation energy:                                             303.729303 eV
  Term symbol:  7 (-) A                                     R^2 =  1.80715e-13
  Excitation energy:                                             304.063001 eV
  Term symbol:  8 (-) A                                     R^2 =  8.82923e-14
  Excitation energy:                                             304.933934 eV
  Term symbol:  9 (-) A                                     R^2 =  5.00537e-14
  Excitation energy:                                             306.574210 eV
  Term symbol:  10 (-) A                                    R^2 =  1.54385e-13
  Excitation energy:                                             312.942860 eV
  Excited state 10 (A)                                             [converged]
  Term symbol:  11 (-) A                                    R^2 =  1.06921e-13
  Excitation energy:                                             313.484723 eV
  Excited state 11 (A)                                             [converged]
  Term symbol:  12 (-) A                                    R^2 =  8.56118e-14
  Excitation energy:                                             313.702412 eV
  Excited state 12 (A)                                             [converged]
  Term symbol:  13 (-) A                                    R^2 =  3.53841e-13
  Excitation energy:                                             313.764946 eV
  Excited state 13 (A)                                             [converged]
  Term symbol:  14 (-) A                                    R^2 =  2.96901e-13
  Excitation energy:                                             313.882765 eV
  Excited state 14 (A)                                             [converged]
  Term symbol:  15 (-) A                                    R^2 =  7.01463e-13
  Excitation energy:                                             314.147493 eV
  Excited state 15 (A)                                             [converged]
  Term symbol:  16 (-) A                                    R^2 =  4.15616e-13
  Excitation energy:                                             314.177307 eV
  Excited state 16 (A)                                             [converged]
  Term symbol:  17 (-) A                                    R^2 =  1.14707e-13
  Excitation energy:                                             314.580669 eV
  Excited state 17 (A)                                         [not converged]
  Term symbol:  18 (-) A                                    R^2 =  1.51323e-06
  Excitation energy:                                             330.129391 eV
  Excited state 18 (A)                                             [converged]
  Term symbol:  19 (-) A                                    R^2 =  2.18437e-07
  Excitation energy:                                             330.154221 eV
  Excited state 19 (A)                                         [not converged]
  Term symbol:  20 (-) A                                    R^2 =  3.71089e-06
  Excitation energy:                                             330.286215 eV
  Excited state 20 (A)                                             [converged]
  Term symbol:  21 (-) A                                    R^2 =  6.03774e-07
  Excitation energy:                                             330.309426 eV

                    Orbital Energies (a.u.)
 --------------------------------------------------------------

 Alpha MOs
 -- Occupied --
-26.396 -26.389 -26.358 -26.354 -11.606  -1.820  -1.710  -1.673
 -1.646  -1.008  -0.901  -0.891  -0.884  -0.762  -0.759  -0.719
 -0.702  -0.691  -0.677  -0.669  -0.658

 Beta MOs
 -- Occupied --
-26.396 -26.389 -26.358 -26.354 -11.606  -1.820  -1.710  -1.673
 -1.646  -1.008  -0.901  -0.891  -0.884  -0.762  -0.759  -0.719
 -0.702  -0.691  -0.677  -0.669  -0.658

          Ground-State Mulliken Net Atomic Charges

     Atom                 Charge (a.u.)    Spin (a.u.)
  --------------------------------------------------------
      1 C                     1.308387       0.000000
      2 F                    -0.369458       0.000000
      3 F                    -0.282460       0.000000
      4 F                    -0.364263       0.000000
      5 F                    -0.292206       0.000000
  --------------------------------------------------------
  Sum of atomic charges =     0.000000

                    Cartesian Multipole Moments
 -----------------------------------------------------------------
    Charge (ESU x 10^10)
                 0.0000
    Dipole Moment (Debye)
         X      -0.4387      Y       0.5136      Z      -0.0954
       Tot       0.6822
    Quadrupole Moments (Debye-Ang)
        XX     -24.5582     XY      -1.5210     YY     -22.5840
        XZ       0.0781     YZ      -0.0645     ZZ     -24.6436

 Total job time:  1847.94s(wall), 3066.58s(cpu)
        *  Thank you very much for using Q-Chem.  Have a nice day.  *
