 Q-Chem 4.3, Q-Chem, Inc., Pleasanton, CA (2015)
 Q-Chem 4.3.0 for Intel X86 Linux

User input:
--------------------------------------------------------------
$comment
XAS calculation for the 2b valence excited for water using cvs-adc(2)-x + 6-311+G* basis set
job 1 - determination of HF orbitals
$end

$molecule
0 1
6  -0.571564  2.951521  -0.177319
9  0.495051  2.319034  0.042331
9  -1.085006  3.517348  0.697702
9  -1.157246  0.486897  0.585656
9  -1.135975  2.696802  -1.209734
$end

$rem
jobtype      sp
sym_ignore true
exchange     hf
basis        6-31G*
unrestricted true
$end

--------------------------------------------------------------

   11    -435.3711427000      4.32E-06 Convergence criterion met
 Total energy in the final basis set = -435.3711427000
 Total job time:  3.02s(wall), 12.30s(cpu)
        *  Thank you very much for using Q-Chem.  Have a nice day.  *
 Q-Chem 4.3, Q-Chem, Inc., Pleasanton, CA (2015)
 Q-Chem 4.3.0 for Intel X86 Linux

User input:
--------------------------------------------------------------

$comment
job3 - cvs-adc(2) calculation
$end

$molecule
read
$end

$rem
mem_total 3000
mem_static 1500
sym_ignore true
scf_guess read
method cvs-adc(2)
basis 6-31G*
ee_singlets 20
cc_rest_occ 5                  !only excitations from the lowest N orbitals
unrestricted  true
max_scf_cycles 200
$end
--------------------------------------------------------------

             Standard Nuclear Orientation (Angstroms)
    I     Atom           X                Y                Z
 ----------------------------------------------------------------
    1      C      -0.5715640000     2.9515210000    -0.1773190000
    2      F       0.4950510000     2.3190340000     0.0423310000
    3      F      -1.0850060000     3.5173480000     0.6977020000
    4      F      -1.1572460000     0.4868970000     0.5856560000
    5      F      -1.1359750000     2.6968020000    -1.2097340000
 ----------------------------------------------------------------

    6    -435.3711427251      7.33E-09 Convergence criterion met
 Total energy in the final basis set = -435.3711427251
  Term symbol:  2 (-) A                                     R^2 =  1.40049e-11
  Excitation energy:                                             294.446909 eV
  Term symbol:  3 (-) A                                     R^2 =  9.98663e-13
  Excitation energy:                                             296.330583 eV
  Term symbol:  4 (-) A                                     R^2 =  2.64625e-11
  Excitation energy:                                             303.566301 eV
  Term symbol:  5 (-) A                                     R^2 =  7.08831e-11
  Excitation energy:                                             305.083902 eV
  Term symbol:  6 (-) A                                     R^2 =  8.38641e-12
  Excitation energy:                                             305.338334 eV
  Term symbol:  7 (-) A                                     R^2 =  5.03152e-12
  Excitation energy:                                             307.119884 eV
  Term symbol:  8 (-) A                                     R^2 =  1.81189e-11
  Excitation energy:                                             307.218238 eV
  Term symbol:  9 (-) A                                     R^2 =  6.36096e-12
  Excitation energy:                                             309.304060 eV
  Term symbol:  10 (-) A                                    R^2 =  1.20118e-11
  Excitation energy:                                             312.575030 eV
  Excited state 10 (A)                                             [converged]
  Term symbol:  11 (-) A                                    R^2 =  5.74695e-12
  Excitation energy:                                             314.117209 eV
  Excited state 11 (A)                                             [converged]
  Term symbol:  12 (-) A                                    R^2 =  2.01202e-11
  Excitation energy:                                             314.381167 eV
  Excited state 12 (A)                                             [converged]
  Term symbol:  13 (-) A                                    R^2 =  5.34421e-11
  Excitation energy:                                             314.800102 eV
  Excited state 13 (A)                                             [converged]
  Term symbol:  14 (-) A                                    R^2 =  8.53017e-12
  Excitation energy:                                             314.849468 eV
  Excited state 14 (A)                                             [converged]
  Term symbol:  15 (-) A                                    R^2 =  8.14755e-12
  Excitation energy:                                             315.381028 eV
  Excited state 15 (A)                                             [converged]
  Term symbol:  16 (-) A                                    R^2 =  1.75529e-08
  Excitation energy:                                             317.710619 eV
  Excited state 16 (A)                                             [converged]
  Term symbol:  17 (-) A                                    R^2 =  6.30378e-11
  Excitation energy:                                             318.523798 eV
  Excited state 17 (A)                                             [converged]
  Term symbol:  18 (-) A                                    R^2 =  2.89818e-09
  Excitation energy:                                             331.378727 eV
  Excited state 18 (A)                                             [converged]
  Term symbol:  19 (-) A                                    R^2 =  4.24064e-08
  Excitation energy:                                             331.560973 eV
  Excited state 19 (A)                                             [converged]
  Term symbol:  20 (-) A                                    R^2 =  4.24775e-07
  Excitation energy:                                             332.222306 eV
  Excited state 20 (A)                                         [not converged]
  Term symbol:  21 (-) A                                    R^2 =  2.61882e-06
  Excitation energy:                                             332.348326 eV

                    Orbital Energies (a.u.)
 --------------------------------------------------------------

 Alpha MOs
 -- Occupied --
-26.577 -26.548 -26.507 -25.956 -11.748  -1.998  -1.897  -1.825
 -1.214  -1.139  -1.061  -1.043  -1.002  -0.883  -0.870  -0.867
 -0.818  -0.810  -0.323  -0.323  -0.317

 Beta MOs
 -- Occupied --
-26.577 -26.548 -26.507 -25.956 -11.748  -1.998  -1.897  -1.825
 -1.214  -1.139  -1.061  -1.043  -1.002  -0.883  -0.870  -0.867
 -0.818  -0.810  -0.323  -0.323  -0.317

          Ground-State Mulliken Net Atomic Charges

     Atom                 Charge (a.u.)    Spin (a.u.)
  --------------------------------------------------------
      1 C                     1.122598       0.000000
      2 F                    -0.128864       0.000000
      3 F                    -0.035430       0.000000
      4 F                    -0.873265       0.000000
      5 F                    -0.085039       0.000000
  --------------------------------------------------------
  Sum of atomic charges =     0.000000

                    Cartesian Multipole Moments
 -----------------------------------------------------------------
    Charge (ESU x 10^10)
                 0.0000
    Dipole Moment (Debye)
         X       2.2388      Y      10.4979      Z      -3.1064
       Tot      11.1744
    Quadrupole Moments (Debye-Ang)
        XX     -26.6576     XY      -5.1923     YY      14.8745
        XZ       3.0733     YZ      -3.3407     ZZ     -23.7036

 Total job time:  2123.65s(wall), 3422.91s(cpu)
        *  Thank you very much for using Q-Chem.  Have a nice day.  *
