 Q-Chem 4.3, Q-Chem, Inc., Pleasanton, CA (2015)
 Q-Chem 4.3.0 for Intel X86 Linux

User input:
--------------------------------------------------------------
$comment
XAS calculation for the 2b valence excited for water using cvs-adc(2)-x + 6-311+G* basis set
job 1 - determination of HF orbitals
$end

$molecule
0 1
6  -0.589362  2.536802  -0.099276
9  0.587473  2.33743  0.002253
9  -1.136793  3.261285  0.78785
9  -1.169359  1.122315  0.462178
9  -1.130202  2.543218  -1.19107
$end

$rem
jobtype      sp
sym_ignore true
exchange     hf
basis        6-31G*
unrestricted true
$end

--------------------------------------------------------------

    8    -435.5625778839      7.87E-06 Convergence criterion met
 Total energy in the final basis set = -435.5625778839
 Total job time:  2.32s(wall), 10.04s(cpu)
        *  Thank you very much for using Q-Chem.  Have a nice day.  *
 Q-Chem 4.3, Q-Chem, Inc., Pleasanton, CA (2015)
 Q-Chem 4.3.0 for Intel X86 Linux

User input:
--------------------------------------------------------------

$comment
job3 - cvs-adc(2) calculation
$end

$molecule
read
$end

$rem
mem_total 3000
mem_static 1500
sym_ignore true
scf_guess read
method cvs-adc(2)
basis 6-31G*
ee_singlets 20
cc_rest_occ 5                  !only excitations from the lowest N orbitals
unrestricted  true
max_scf_cycles 200
$end
--------------------------------------------------------------

             Standard Nuclear Orientation (Angstroms)
    I     Atom           X                Y                Z
 ----------------------------------------------------------------
    1      C      -0.5893620000     2.5368020000    -0.0992760000
    2      F       0.5874730000     2.3374300000     0.0022530000
    3      F      -1.1367930000     3.2612850000     0.7878500000
    4      F      -1.1693590000     1.1223150000     0.4621780000
    5      F      -1.1302020000     2.5432180000    -1.1910700000
 ----------------------------------------------------------------

    6    -435.5625780276      8.03E-09 Convergence criterion met
 Total energy in the final basis set = -435.5625780276
  Term symbol:  2 (-) A                                     R^2 =  1.31305e-12
  Excitation energy:                                             297.107909 eV
  Term symbol:  3 (-) A                                     R^2 =  8.58699e-13
  Excitation energy:                                             299.129899 eV
  Term symbol:  4 (-) A                                     R^2 =  1.11948e-12
  Excitation energy:                                             303.401748 eV
  Term symbol:  5 (-) A                                     R^2 =  1.00619e-12
  Excitation energy:                                             304.447988 eV
  Term symbol:  6 (-) A                                     R^2 =  2.77540e-13
  Excitation energy:                                             305.630263 eV
  Term symbol:  7 (-) A                                     R^2 =  5.77206e-13
  Excitation energy:                                             305.687427 eV
  Term symbol:  8 (-) A                                     R^2 =  1.16115e-12
  Excitation energy:                                             306.405439 eV
  Term symbol:  9 (-) A                                     R^2 =  1.95794e-13
  Excitation energy:                                             307.797973 eV
  Term symbol:  10 (-) A                                    R^2 =  5.52640e-13
  Excitation energy:                                             311.819715 eV
  Excited state 10 (A)                                             [converged]
  Term symbol:  11 (-) A                                    R^2 =  1.40325e-13
  Excitation energy:                                             313.173886 eV
  Excited state 11 (A)                                             [converged]
  Term symbol:  12 (-) A                                    R^2 =  2.41422e-12
  Excitation energy:                                             313.919182 eV
  Excited state 12 (A)                                             [converged]
  Term symbol:  13 (-) A                                    R^2 =  8.03363e-13
  Excitation energy:                                             314.213466 eV
  Excited state 13 (A)                                             [converged]
  Term symbol:  14 (-) A                                    R^2 =  4.85514e-13
  Excitation energy:                                             314.297771 eV
  Excited state 14 (A)                                             [converged]
  Term symbol:  15 (-) A                                    R^2 =  3.05163e-13
  Excitation energy:                                             314.643097 eV
  Excited state 15 (A)                                             [converged]
  Term symbol:  16 (-) A                                    R^2 =  1.28294e-12
  Excitation energy:                                             316.477970 eV
  Excited state 16 (A)                                             [converged]
  Term symbol:  17 (-) A                                    R^2 =  3.58187e-13
  Excitation energy:                                             316.887804 eV
  Excited state 17 (A)                                         [not converged]
  Term symbol:  18 (-) A                                    R^2 =  6.28698e-06
  Excitation energy:                                             330.670218 eV
  Excited state 18 (A)                                         [not converged]
  Term symbol:  19 (-) A                                    R^2 =  7.51987e-05
  Excitation energy:                                             330.847950 eV
  Excited state 19 (A)                                         [not converged]
  Term symbol:  20 (-) A                                    R^2 =  9.79623e-04
  Excitation energy:                                             331.057469 eV
  Excited state 20 (A)                                         [not converged]
  Term symbol:  21 (-) A                                    R^2 =  2.07391e-04
  Excitation energy:                                             331.101908 eV

                    Orbital Energies (a.u.)
 --------------------------------------------------------------

 Alpha MOs
 -- Occupied --
-26.440 -26.429 -26.402 -26.223 -11.628  -1.872  -1.776  -1.730
 -1.488  -1.035  -0.950  -0.938  -0.896  -0.789  -0.778  -0.766
 -0.745  -0.717  -0.566  -0.565  -0.561

 Beta MOs
 -- Occupied --
-26.440 -26.429 -26.402 -26.223 -11.628  -1.872  -1.776  -1.730
 -1.488  -1.035  -0.950  -0.938  -0.896  -0.789  -0.778  -0.766
 -0.745  -0.717  -0.566  -0.565  -0.561

          Ground-State Mulliken Net Atomic Charges

     Atom                 Charge (a.u.)    Spin (a.u.)
  --------------------------------------------------------
      1 C                     1.231608       0.000000
      2 F                    -0.183174       0.000000
      3 F                    -0.273045       0.000000
      4 F                    -0.564702       0.000000
      5 F                    -0.210686       0.000000
  --------------------------------------------------------
  Sum of atomic charges =     0.000000

                    Cartesian Multipole Moments
 -----------------------------------------------------------------
    Charge (ESU x 10^10)
                 0.0000
    Dipole Moment (Debye)
         X       1.4211      Y       2.6236      Z      -1.3316
       Tot       3.2674
    Quadrupole Moments (Debye-Ang)
        XX     -26.0929     XY       0.7467     YY     -14.0619
        XZ       1.3024     YZ      -2.4415     ZZ     -24.3419

 Total job time:  1961.22s(wall), 3223.50s(cpu)
        *  Thank you very much for using Q-Chem.  Have a nice day.  *
