 Q-Chem 4.3, Q-Chem, Inc., Pleasanton, CA (2015)
 Q-Chem 4.3.0 for Intel X86 Linux

User input:
--------------------------------------------------------------
$comment
XAS calculation for the 2b valence excited for water using cvs-adc(2)-x + 6-311+G* basis set
job 1 - determination of HF orbitals
$end

$molecule
0 1
6  -0.426036  3.012742  -0.280412
9  0.496202  2.362328  0.00423
9  -1.153686  3.315997  0.775921
9  -1.233812  0.723241  0.584185
9  -1.12978  2.606382  -1.167709
$end

$rem
jobtype      sp
sym_ignore true
exchange     hf
basis        6-31G*
unrestricted true
$end

--------------------------------------------------------------

   13    -435.3098736385      7.61E-06 Convergence criterion met
 Total energy in the final basis set = -435.3098736385
 Total job time:  9.41s(wall), 15.35s(cpu)
        *  Thank you very much for using Q-Chem.  Have a nice day.  *
 Q-Chem 4.3, Q-Chem, Inc., Pleasanton, CA (2015)
 Q-Chem 4.3.0 for Intel X86 Linux

User input:
--------------------------------------------------------------

$comment
job3 - cvs-adc(2) calculation
$end

$molecule
read
$end

$rem
mem_total 3000
mem_static 1500
sym_ignore true
scf_guess read
method cvs-adc(2)
basis 6-31G*
ee_singlets 20
cc_rest_occ 5                  !only excitations from the lowest N orbitals
unrestricted  true
max_scf_cycles 200
$end
--------------------------------------------------------------

             Standard Nuclear Orientation (Angstroms)
    I     Atom           X                Y                Z
 ----------------------------------------------------------------
    1      C      -0.4260360000     3.0127420000    -0.2804120000
    2      F       0.4962020000     2.3623280000     0.0042300000
    3      F      -1.1536860000     3.3159970000     0.7759210000
    4      F      -1.2338120000     0.7232410000     0.5841850000
    5      F      -1.1297800000     2.6063820000    -1.1677090000
 ----------------------------------------------------------------

   10    -435.3098748706      5.30E-09 Convergence criterion met
 Total energy in the final basis set = -435.3098748706
  Term symbol:  2 (-) A                                     R^2 =  4.59645e-13
  Excitation energy:                                             293.002087 eV
  Term symbol:  3 (-) A                                     R^2 =  1.02126e-12
  Excitation energy:                                             294.677920 eV
  Term symbol:  4 (-) A                                     R^2 =  6.34261e-13
  Excitation energy:                                             302.000294 eV
  Term symbol:  5 (-) A                                     R^2 =  1.55478e-12
  Excitation energy:                                             304.095214 eV
  Term symbol:  6 (-) A                                     R^2 =  1.36104e-12
  Excitation energy:                                             305.144700 eV
  Term symbol:  7 (-) A                                     R^2 =  6.89844e-13
  Excitation energy:                                             306.288118 eV
  Term symbol:  8 (-) A                                     R^2 =  7.49907e-13
  Excitation energy:                                             307.041455 eV
  Term symbol:  9 (-) A                                     R^2 =  1.13191e-12
  Excitation energy:                                             307.901293 eV
  Term symbol:  10 (-) A                                    R^2 =  1.63169e-12
  Excitation energy:                                             311.775346 eV
  Excited state 10 (A)                                             [converged]
  Term symbol:  11 (-) A                                    R^2 =  7.88199e-13
  Excitation energy:                                             312.817442 eV
  Excited state 11 (A)                                             [converged]
  Term symbol:  12 (-) A                                    R^2 =  7.55435e-13
  Excitation energy:                                             313.218652 eV
  Excited state 12 (A)                                             [converged]
  Term symbol:  13 (-) A                                    R^2 =  1.48190e-12
  Excitation energy:                                             313.255350 eV
  Excited state 13 (A)                                             [converged]
  Term symbol:  14 (-) A                                    R^2 =  6.97838e-13
  Excitation energy:                                             313.534926 eV
  Excited state 14 (A)                                             [converged]
  Term symbol:  15 (-) A                                    R^2 =  3.44082e-13
  Excitation energy:                                             314.079585 eV
  Excited state 15 (A)                                             [converged]
  Term symbol:  16 (-) A                                    R^2 =  4.77298e-10
  Excitation energy:                                             317.516102 eV
  Excited state 16 (A)                                             [converged]
  Term symbol:  17 (-) A                                    R^2 =  1.96291e-12
  Excitation energy:                                             318.072420 eV
  Excited state 17 (A)                                         [not converged]
  Term symbol:  18 (-) A                                    R^2 =  3.63436e-06
  Excitation energy:                                             322.691065 eV
  Excited state 18 (A)                                             [converged]
  Term symbol:  19 (-) A                                    R^2 =  1.21025e-08
  Excitation energy:                                             322.713638 eV
  Excited state 19 (A)                                         [not converged]
  Term symbol:  20 (-) A                                    R^2 =  5.29831e-01
  Excitation energy:                                             327.657056 eV
  Excited state 20 (A)                                             [converged]
  Term symbol:  21 (-) A                                    R^2 =  7.68172e-07
  Excitation energy:                                             330.766133 eV

                    Orbital Energies (a.u.)
 --------------------------------------------------------------

 Alpha MOs
 -- Occupied --
-26.547 -26.529 -26.479 -25.987 -11.718  -1.971  -1.865  -1.771
 -1.241  -1.114  -1.027  -1.010  -0.968  -0.858  -0.829  -0.825
 -0.782  -0.779  -0.350  -0.350  -0.328

 Beta MOs
 -- Occupied --
-26.547 -26.529 -26.479 -25.987 -11.718  -1.971  -1.865  -1.771
 -1.241  -1.114  -1.027  -1.010  -0.968  -0.858  -0.829  -0.825
 -0.782  -0.779  -0.350  -0.350  -0.328

          Ground-State Mulliken Net Atomic Charges

     Atom                 Charge (a.u.)    Spin (a.u.)
  --------------------------------------------------------
      1 C                     1.096356       0.000000
      2 F                     0.000855       0.000000
      3 F                    -0.198083       0.000000
      4 F                    -0.829237       0.000000
      5 F                    -0.069892       0.000000
  --------------------------------------------------------
  Sum of atomic charges =     0.000000

                    Cartesian Multipole Moments
 -----------------------------------------------------------------
    Charge (ESU x 10^10)
                 0.0000
    Dipole Moment (Debye)
         X       3.6443      Y       8.7456      Z      -3.7596
       Tot      10.1931
    Quadrupole Moments (Debye-Ang)
        XX     -28.1802     XY       0.3860     YY      10.2929
        XZ       3.4628     YZ      -6.5726     ZZ     -23.7342

 Total job time:  1974.86s(wall), 3270.86s(cpu)
        *  Thank you very much for using Q-Chem.  Have a nice day.  *
