 Q-Chem 4.3, Q-Chem, Inc., Pleasanton, CA (2015)
 Q-Chem 4.3.0 for Intel X86 Linux

User input:
--------------------------------------------------------------
$comment
XAS calculation for the 2b valence excited for water using cvs-adc(2)-x + 6-311+G* basis set
job 1 - determination of HF orbitals
$end

$molecule
0 1
6  -0.634129  2.734835  -0.111415
9  0.493054  2.426154  0.016556
9  -1.036165  3.691733  0.641336
9  -1.198148  0.198216  0.662597
9  -1.1022  2.840388  -1.246433
$end

$rem
jobtype      sp
sym_ignore true
exchange     hf
basis        6-31G*
unrestricted true
$end

--------------------------------------------------------------

   11    -435.3722707138      5.71E-06 Convergence criterion met
 Total energy in the final basis set = -435.3722707138
 Total job time:  2.90s(wall), 12.68s(cpu)
        *  Thank you very much for using Q-Chem.  Have a nice day.  *
 Q-Chem 4.3, Q-Chem, Inc., Pleasanton, CA (2015)
 Q-Chem 4.3.0 for Intel X86 Linux

User input:
--------------------------------------------------------------

$comment
job3 - cvs-adc(2) calculation
$end

$molecule
read
$end

$rem
mem_total 3000
mem_static 1500
sym_ignore true
scf_guess read
method cvs-adc(2)
basis 6-31G*
ee_singlets 20
cc_rest_occ 5                  !only excitations from the lowest N orbitals
unrestricted  true
max_scf_cycles 200
$end
--------------------------------------------------------------

             Standard Nuclear Orientation (Angstroms)
    I     Atom           X                Y                Z
 ----------------------------------------------------------------
    1      C      -0.6341290000     2.7348350000    -0.1114150000
    2      F       0.4930540000     2.4261540000     0.0165560000
    3      F      -1.0361650000     3.6917330000     0.6413360000
    4      F      -1.1981480000     0.1982160000     0.6625970000
    5      F      -1.1022000000     2.8403880000    -1.2464330000
 ----------------------------------------------------------------

    8    -435.3722709508      8.33E-09 Convergence criterion met
 Total energy in the final basis set = -435.3722709508
  Term symbol:  2 (-) A                                     R^2 =  1.25454e-13
  Excitation energy:                                             294.289959 eV
  Term symbol:  3 (-) A                                     R^2 =  2.19287e-13
  Excitation energy:                                             296.224942 eV
  Term symbol:  4 (-) A                                     R^2 =  2.64303e-13
  Excitation energy:                                             302.985701 eV
  Term symbol:  5 (-) A                                     R^2 =  6.72543e-13
  Excitation energy:                                             304.362370 eV
  Term symbol:  6 (-) A                                     R^2 =  5.42079e-13
  Excitation energy:                                             305.118495 eV
  Term symbol:  7 (-) A                                     R^2 =  4.84273e-13
  Excitation energy:                                             306.255451 eV
  Term symbol:  8 (-) A                                     R^2 =  1.86852e-13
  Excitation energy:                                             306.258294 eV
  Term symbol:  9 (-) A                                     R^2 =  1.41719e-13
  Excitation energy:                                             308.081971 eV
  Term symbol:  10 (-) A                                    R^2 =  5.76871e-13
  Excitation energy:                                             313.115524 eV
  Excited state 10 (A)                                             [converged]
  Term symbol:  11 (-) A                                    R^2 =  1.91251e-13
  Excitation energy:                                             314.024498 eV
  Excited state 11 (A)                                             [converged]
  Term symbol:  12 (-) A                                    R^2 =  3.23996e-13
  Excitation energy:                                             314.113047 eV
  Excited state 12 (A)                                             [converged]
  Term symbol:  13 (-) A                                    R^2 =  2.38712e-13
  Excitation energy:                                             314.192137 eV
  Excited state 13 (A)                                             [converged]
  Term symbol:  14 (-) A                                    R^2 =  9.53441e-13
  Excitation energy:                                             314.570795 eV
  Excited state 14 (A)                                             [converged]
  Term symbol:  15 (-) A                                    R^2 =  1.66570e-13
  Excitation energy:                                             314.789168 eV
  Excited state 15 (A)                                             [converged]
  Term symbol:  16 (-) A                                    R^2 =  9.38724e-13
  Excitation energy:                                             315.589865 eV
  Excited state 16 (A)                                             [converged]
  Term symbol:  17 (-) A                                    R^2 =  1.54526e-12
  Excitation energy:                                             316.687861 eV
  Excited state 17 (A)                                             [converged]
  Term symbol:  18 (-) A                                    R^2 =  4.75260e-08
  Excitation energy:                                             327.864654 eV
  Excited state 18 (A)                                             [converged]
  Term symbol:  19 (-) A                                    R^2 =  5.82306e-08
  Excitation energy:                                             327.911767 eV
  Excited state 19 (A)                                         [not converged]
  Term symbol:  20 (-) A                                    R^2 =  1.81038e-01
  Excitation energy:                                             329.359231 eV
  Excited state 20 (A)                                         [not converged]
  Term symbol:  21 (-) A                                    R^2 =  1.75048e-05
  Excitation energy:                                             331.208765 eV

                    Orbital Energies (a.u.)
 --------------------------------------------------------------

 Alpha MOs
 -- Occupied --
-26.532 -26.517 -26.501 -26.073 -11.727  -1.958  -1.855  -1.806
 -1.301  -1.113  -1.025  -1.016  -0.966  -0.864  -0.847  -0.831
 -0.812  -0.795  -0.416  -0.416  -0.366

 Beta MOs
 -- Occupied --
-26.532 -26.517 -26.501 -26.073 -11.727  -1.958  -1.855  -1.806
 -1.301  -1.113  -1.025  -1.016  -0.966  -0.864  -0.847  -0.831
 -0.812  -0.795  -0.416  -0.416  -0.366

          Ground-State Mulliken Net Atomic Charges

     Atom                 Charge (a.u.)    Spin (a.u.)
  --------------------------------------------------------
      1 C                     1.090396       0.000000
      2 F                    -0.057646       0.000000
      3 F                    -0.209643       0.000000
      4 F                    -0.676975       0.000000
      5 F                    -0.146133       0.000000
  --------------------------------------------------------
  Sum of atomic charges =     0.000000

                    Cartesian Multipole Moments
 -----------------------------------------------------------------
    Charge (ESU x 10^10)
                 0.0000
    Dipole Moment (Debye)
         X       2.0828      Y       7.7504      Z      -2.5292
       Tot       8.4145
    Quadrupole Moments (Debye-Ang)
        XX     -26.4550     XY      -3.5221     YY      -0.8412
        XZ       2.7214     YZ      -1.9535     ZZ     -24.5868

 Total job time:  2066.70s(wall), 3347.00s(cpu)
        *  Thank you very much for using Q-Chem.  Have a nice day.  *
