 Q-Chem 4.3, Q-Chem, Inc., Pleasanton, CA (2015)
 Q-Chem 4.3.0 for Intel X86 Linux

User input:
--------------------------------------------------------------
$comment
XAS calculation for the 2b valence excited for water using cvs-adc(2)-x + 6-311+G* basis set
job 1 - determination of HF orbitals
$end

$molecule
0 1
6  -0.335279  3.231489  -0.343715
9  0.847993  2.779087  -0.227445
9  -0.983058  3.26817  0.661141
9  -1.964885  -0.061421  1.160446
9  -0.908687  2.839518  -1.378795
$end

$rem
jobtype      sp
sym_ignore true
exchange     hf
basis        6-31G*
unrestricted true
$end

--------------------------------------------------------------

   12    -435.2540601967      9.97E-06 Convergence criterion met
 Total energy in the final basis set = -435.2540601967
 Total job time:  3.21s(wall), 13.38s(cpu)
        *  Thank you very much for using Q-Chem.  Have a nice day.  *
 Q-Chem 4.3, Q-Chem, Inc., Pleasanton, CA (2015)
 Q-Chem 4.3.0 for Intel X86 Linux

User input:
--------------------------------------------------------------

$comment
job3 - cvs-adc(2) calculation
$end

$molecule
read
$end

$rem
mem_total 3000
mem_static 1500
sym_ignore true
scf_guess read
method cvs-adc(2)
basis 6-31G*
ee_singlets 20
cc_rest_occ 5                  !only excitations from the lowest N orbitals
unrestricted  true
max_scf_cycles 200
$end
--------------------------------------------------------------

             Standard Nuclear Orientation (Angstroms)
    I     Atom           X                Y                Z
 ----------------------------------------------------------------
    1      C      -0.3352790000     3.2314890000    -0.3437150000
    2      F       0.8479930000     2.7790870000    -0.2274450000
    3      F      -0.9830580000     3.2681700000     0.6611410000
    4      F      -1.9648850000    -0.0614210000     1.1604460000
    5      F      -0.9086870000     2.8395180000    -1.3787950000
 ----------------------------------------------------------------

   10    -435.2540596188      2.79E-09 Convergence criterion met
 Total energy in the final basis set = -435.2540596188
  Term symbol:  2 (-) A                                     R^2 =  4.10552e-13
  Excitation energy:                                             293.029861 eV
  Term symbol:  3 (-) A                                     R^2 =  2.15432e-13
  Excitation energy:                                             294.884570 eV
  Term symbol:  4 (-) A                                     R^2 =  3.17091e-13
  Excitation energy:                                             303.482078 eV
  Term symbol:  5 (-) A                                     R^2 =  3.24261e-13
  Excitation energy:                                             304.195907 eV
  Term symbol:  6 (-) A                                     R^2 =  8.85166e-14
  Excitation energy:                                             305.557540 eV
  Term symbol:  7 (-) A                                     R^2 =  1.50106e-13
  Excitation energy:                                             305.700649 eV
  Term symbol:  8 (-) A                                     R^2 =  4.06993e-13
  Excitation energy:                                             306.180405 eV
  Term symbol:  9 (-) A                                     R^2 =  1.49333e-13
  Excitation energy:                                             307.548457 eV
  Term symbol:  10 (-) A                                    R^2 =  7.39313e-13
  Excitation energy:                                             312.946860 eV
  Excited state 10 (A)                                             [converged]
  Term symbol:  11 (-) A                                    R^2 =  5.43247e-13
  Excitation energy:                                             314.253540 eV
  Excited state 11 (A)                                             [converged]
  Term symbol:  12 (-) A                                    R^2 =  1.24540e-13
  Excitation energy:                                             314.416042 eV
  Excited state 12 (A)                                             [converged]
  Term symbol:  13 (-) A                                    R^2 =  8.29624e-14
  Excitation energy:                                             314.515621 eV
  Excited state 13 (A)                                             [converged]
  Term symbol:  14 (-) A                                    R^2 =  1.87383e-13
  Excitation energy:                                             314.872523 eV
  Excited state 14 (A)                                             [converged]
  Term symbol:  15 (-) A                                    R^2 =  6.35037e-13
  Excitation energy:                                             315.061172 eV
  Excited state 15 (A)                                             [converged]
  Term symbol:  16 (-) A                                    R^2 =  5.09912e-13
  Excitation energy:                                             315.368083 eV
  Excited state 16 (A)                                             [converged]
  Term symbol:  17 (-) A                                    R^2 =  9.63483e-13
  Excitation energy:                                             316.275827 eV
  Excited state 17 (A)                                         [not converged]
  Term symbol:  18 (-) A                                    R^2 =  5.17353e-01
  Excitation energy:                                             321.516933 eV
  Excited state 18 (A)                                             [converged]
  Term symbol:  19 (-) A                                    R^2 =  1.41966e-08
  Excitation energy:                                             332.311865 eV
  Excited state 19 (A)                                         [not converged]
  Term symbol:  20 (-) A                                    R^2 =  2.76395e-06
  Excitation energy:                                             332.460002 eV
  Excited state 20 (A)                                             [converged]
  Term symbol:  21 (-) A                                    R^2 =  1.25770e-07
  Excitation energy:                                             332.738612 eV

                    Orbital Energies (a.u.)
 --------------------------------------------------------------

 Alpha MOs
 -- Occupied --
-26.627 -26.609 -26.600 -25.834 -11.828  -2.034  -1.930  -1.898
 -1.192  -1.104  -1.100  -1.097  -1.046  -0.937  -0.928  -0.906
 -0.896  -0.882  -0.215  -0.214  -0.214

 Beta MOs
 -- Occupied --
-26.627 -26.609 -26.600 -25.834 -11.828  -2.034  -1.930  -1.898
 -1.192  -1.104  -1.100  -1.097  -1.046  -0.937  -0.928  -0.906
 -0.896  -0.882  -0.215  -0.214  -0.214

          Ground-State Mulliken Net Atomic Charges

     Atom                 Charge (a.u.)    Spin (a.u.)
  --------------------------------------------------------
      1 C                     1.247137       0.000000
      2 F                    -0.134626       0.000000
      3 F                    -0.016976       0.000000
      4 F                    -0.995631       0.000000
      5 F                    -0.099904       0.000000
  --------------------------------------------------------
  Sum of atomic charges =     0.000000

                    Cartesian Multipole Moments
 -----------------------------------------------------------------
    Charge (ESU x 10^10)
                 0.0000
    Dipole Moment (Debye)
         X       7.4087      Y      15.8398      Z      -6.8864
       Tot      18.7939
    Quadrupole Moments (Debye-Ang)
        XX     -39.9746     XY      -6.5768     YY      29.3797
        XZ      11.1486     YZ      -4.4078     ZZ     -28.1142

 Total job time:  1878.26s(wall), 3097.81s(cpu)
        *  Thank you very much for using Q-Chem.  Have a nice day.  *
