 Q-Chem 4.3, Q-Chem, Inc., Pleasanton, CA (2015)
 Q-Chem 4.3.0 for Intel X86 Linux

User input:
--------------------------------------------------------------
$comment
XAS calculation for the 2b valence excited for water using cvs-adc(2)-x + 6-311+G* basis set
job 1 - determination of HF orbitals
$end

$molecule
0 1
6  -0.412288  3.237607  -0.30826
9  0.45448  2.467238  0.032388
9  -1.024106  3.858506  0.619591
9  -1.289621  -0.428274  0.829411
9  -1.123843  2.940376  -1.283621
$end

$rem
jobtype      sp
sym_ignore true
exchange     hf
basis        6-31G*
unrestricted true
$end

--------------------------------------------------------------

   14    -435.2655466951      7.41E-06 Convergence criterion met
 Total energy in the final basis set = -435.2655466951
 Total job time:  3.18s(wall), 13.96s(cpu)
        *  Thank you very much for using Q-Chem.  Have a nice day.  *
 Q-Chem 4.3, Q-Chem, Inc., Pleasanton, CA (2015)
 Q-Chem 4.3.0 for Intel X86 Linux

User input:
--------------------------------------------------------------

$comment
job3 - cvs-adc(2) calculation
$end

$molecule
read
$end

$rem
mem_total 3000
mem_static 1500
sym_ignore true
scf_guess read
method cvs-adc(2)
basis 6-31G*
ee_singlets 20
cc_rest_occ 1                  !only excitations from the lowest N orbitals
unrestricted  true
max_scf_cycles 200
$end
--------------------------------------------------------------

             Standard Nuclear Orientation (Angstroms)
    I     Atom           X                Y                Z
 ----------------------------------------------------------------
    1      C      -0.4122880000     3.2376070000    -0.3082600000
    2      F       0.4544800000     2.4672380000     0.0323880000
    3      F      -1.0241060000     3.8585060000     0.6195910000
    4      F      -1.2896210000    -0.4282740000     0.8294110000
    5      F      -1.1238430000     2.9403760000    -1.2836210000
 ----------------------------------------------------------------

   10    -435.2655455141      2.19E-09 Convergence criterion met
 Total energy in the final basis set = -435.2655455141
  Term symbol:  2 (-) A                                     R^2 =  1.00610e-12
  Excitation energy:                                             689.076380 eV
  Term symbol:  3 (-) A                                     R^2 =  1.10991e-12
  Excitation energy:                                             689.351797 eV
  Term symbol:  4 (-) A                                     R^2 =  2.06180e-12
  Excitation energy:                                             697.393297 eV
  Term symbol:  5 (-) A                                     R^2 =  1.30677e-12
  Excitation energy:                                             698.303141 eV
  Term symbol:  6 (-) A                                     R^2 =  1.82105e-12
  Excitation energy:                                             700.178957 eV
  Term symbol:  7 (-) A                                     R^2 =  7.92230e-13
  Excitation energy:                                             700.376806 eV
  Term symbol:  8 (-) A                                     R^2 =  6.17612e-13
  Excitation energy:                                             700.970654 eV
  Term symbol:  9 (-) A                                     R^2 =  1.51503e-12
  Excitation energy:                                             701.353516 eV
  Term symbol:  10 (-) A                                    R^2 =  6.36483e-13
  Excitation energy:                                             705.759290 eV
  Excited state 10 (A)                                             [converged]
  Term symbol:  11 (-) A                                    R^2 =  4.33284e-13
  Excitation energy:                                             706.008194 eV
  Excited state 11 (A)                                             [converged]
  Term symbol:  12 (-) A                                    R^2 =  7.91555e-13
  Excitation energy:                                             706.966266 eV
  Excited state 12 (A)                                             [converged]
  Term symbol:  13 (-) A                                    R^2 =  4.30196e-13
  Excitation energy:                                             706.980381 eV
  Excited state 13 (A)                                             [converged]
  Term symbol:  14 (-) A                                    R^2 =  6.51337e-13
  Excitation energy:                                             707.091399 eV
  Excited state 14 (A)                                             [converged]
  Term symbol:  15 (-) A                                    R^2 =  2.48798e-13
  Excitation energy:                                             707.286008 eV
  Excited state 15 (A)                                             [converged]
  Term symbol:  16 (-) A                                    R^2 =  4.17136e-13
  Excitation energy:                                             708.433524 eV
  Excited state 16 (A)                                             [converged]
  Term symbol:  17 (-) A                                    R^2 =  1.00814e-12
  Excitation energy:                                             708.460889 eV
  Excited state 17 (A)                                         [not converged]
  Term symbol:  18 (-) A                                    R^2 =  9.62209e-06
  Excitation energy:                                             721.712156 eV
  Excited state 18 (A)                                         [not converged]
  Term symbol:  19 (-) A                                    R^2 =  5.41641e-05
  Excitation energy:                                             722.652020 eV
  Excited state 19 (A)                                         [not converged]
  Term symbol:  20 (-) A                                    R^2 =  3.90101e-04
  Excitation energy:                                             722.664924 eV
  Excited state 20 (A)                                         [not converged]
  Term symbol:  21 (-) A                                    R^2 =  1.88773e-06
  Excitation energy:                                             722.665112 eV

                    Orbital Energies (a.u.)
 --------------------------------------------------------------

 Alpha MOs
 -- Occupied --
-26.623 -26.613 -26.603 -25.836 -11.829  -2.026  -1.929  -1.901
 -1.190  -1.105  -1.099  -1.095  -1.043  -0.937  -0.928  -0.907
 -0.899  -0.884  -0.217  -0.216  -0.216

 Beta MOs
 -- Occupied --
-26.623 -26.613 -26.603 -25.836 -11.829  -2.026  -1.929  -1.901
 -1.190  -1.105  -1.099  -1.095  -1.043  -0.937  -0.928  -0.907
 -0.899  -0.884  -0.217  -0.216  -0.216

          Ground-State Mulliken Net Atomic Charges

     Atom                 Charge (a.u.)    Spin (a.u.)
  --------------------------------------------------------
      1 C                     1.262585       0.000000
      2 F                    -0.032374       0.000000
      3 F                    -0.138538       0.000000
      4 F                    -0.995031       0.000000
      5 F                    -0.096642       0.000000
  --------------------------------------------------------
  Sum of atomic charges =     0.000000

                    Cartesian Multipole Moments
 -----------------------------------------------------------------
    Charge (ESU x 10^10)
                 0.0000
    Dipole Moment (Debye)
         X       4.5138      Y      17.1587      Z      -5.5004
       Tot      18.5755
    Quadrupole Moments (Debye-Ang)
        XX     -29.4287     XY      -7.4835     YY      25.6942
        XZ       5.5866     YZ      -3.7140     ZZ     -25.0784

 Total job time:  222.69s(wall), 1189.95s(cpu)
        *  Thank you very much for using Q-Chem.  Have a nice day.  *
