 Q-Chem 4.3, Q-Chem, Inc., Pleasanton, CA (2015)
 Q-Chem 4.3.0 for Intel X86 Linux

User input:
--------------------------------------------------------------
$comment
XAS calculation for the 2b valence excited for water using cvs-adc(2)-x + 6-311+G* basis set
job 1 - determination of HF orbitals
$end

$molecule
0 1
6  -0.551596  2.950641  -0.194994
9  0.719907  2.390535  -0.037988
9  -1.137044  3.121063  0.78912
9  -1.370526  1.009671  0.611611
9  -1.110091  2.526976  -1.235599
$end

$rem
jobtype      sp
sym_ignore true
exchange     hf
basis        6-31G*
unrestricted true
$end

--------------------------------------------------------------

   12    -435.3360451995      4.28E-06 Convergence criterion met
 Total energy in the final basis set = -435.3360451995

                    Orbital Energies (a.u.)
 --------------------------------------------------------------

 Alpha MOs
 -- Occupied --
-26.551 -26.512 -26.463 -25.989 -11.730  -1.950  -1.836  -1.729
 -1.260  -1.102  -1.006  -0.984  -0.943  -0.839  -0.819  -0.799
 -0.769  -0.765  -0.362  -0.361  -0.354

 Beta MOs
 -- Occupied --
-26.551 -26.512 -26.463 -25.989 -11.730  -1.950  -1.836  -1.729
 -1.260  -1.102  -1.006  -0.984  -0.943  -0.839  -0.819  -0.799
 -0.769  -0.765  -0.362  -0.361  -0.354

          Ground-State Mulliken Net Atomic Charges

     Atom                 Charge (a.u.)    Spin (a.u.)
  --------------------------------------------------------
      1 C                     1.207166       0.000000
      2 F                    -0.257208       0.000000
      3 F                     0.031969       0.000000
      4 F                    -0.851668       0.000000
      5 F                    -0.130259       0.000000
  --------------------------------------------------------
  Sum of atomic charges =     0.000000

                    Cartesian Multipole Moments
 -----------------------------------------------------------------
    Charge (ESU x 10^10)
                 0.0000
    Dipole Moment (Debye)
         X       2.4065      Y       8.2116      Z      -2.8638
       Tot       9.0235
    Quadrupole Moments (Debye-Ang)
        XX     -28.7497     XY      -3.3551     YY      11.1762
        XZ       3.3454     YZ      -3.9518     ZZ     -23.9199

 Total job time:  3.07s(wall), 16.29s(cpu)
        *  Thank you very much for using Q-Chem.  Have a nice day.  *
 Q-Chem 4.3, Q-Chem, Inc., Pleasanton, CA (2015)
 Q-Chem 4.3.0 for Intel X86 Linux

User input:
--------------------------------------------------------------

$comment
job3 - cvs-adc(2) calculation
$end

$molecule
read
$end

$rem
mem_total 3000
mem_static 1500
sym_ignore true
scf_guess read
method cvs-adc(2)
basis 6-31G*
ee_singlets 20
cc_rest_occ 5                  !only excitations from the lowest N orbitals
unrestricted  true
max_scf_cycles 200
$end
--------------------------------------------------------------

             Standard Nuclear Orientation (Angstroms)
    I     Atom           X                Y                Z
 ----------------------------------------------------------------
    1      C      -0.5515960000     2.9506410000    -0.1949940000
    2      F       0.7199070000     2.3905350000    -0.0379880000
    3      F      -1.1370440000     3.1210630000     0.7891200000
    4      F      -1.3705260000     1.0096710000     0.6116110000
    5      F      -1.1100910000     2.5269760000    -1.2355990000
 ----------------------------------------------------------------

    9    -435.3360454031      6.92E-09 Convergence criterion met
 Total energy in the final basis set = -435.3360454031
