 Q-Chem 4.3, Q-Chem, Inc., Pleasanton, CA (2015)
 Q-Chem 4.3.0 for Intel X86 Linux

User input:
--------------------------------------------------------------
$comment
XAS calculation for the 2b valence excited for water using cvs-adc(2)-x + 6-311+G* basis set
job 1 - determination of HF orbitals
$end

$molecule
0 1
6  -0.477167  2.898192  -0.213628
9  0.502048  2.257373  0.049781
9  -1.158637  3.371109  0.802954
9  -1.113568  0.870535  0.485384
9  -1.172747  2.555153  -1.198885
$end

$rem
jobtype      sp
sym_ignore true
exchange     hf
basis        6-31G*
unrestricted true
$end

--------------------------------------------------------------

   12    -435.3654528497      3.75E-06 Convergence criterion met
 Total energy in the final basis set = -435.3654528497
 Total job time:  3.33s(wall), 14.59s(cpu)
        *  Thank you very much for using Q-Chem.  Have a nice day.  *
 Q-Chem 4.3, Q-Chem, Inc., Pleasanton, CA (2015)
 Q-Chem 4.3.0 for Intel X86 Linux

User input:
--------------------------------------------------------------

$comment
job3 - cvs-adc(2) calculation
$end

$molecule
read
$end

$rem
mem_total 3000
mem_static 1500
sym_ignore true
scf_guess read
method cvs-adc(2)
basis 6-31G*
ee_singlets 20
cc_rest_occ 5                  !only excitations from the lowest N orbitals
unrestricted  true
max_scf_cycles 200
$end
--------------------------------------------------------------

             Standard Nuclear Orientation (Angstroms)
    I     Atom           X                Y                Z
 ----------------------------------------------------------------
    1      C      -0.4771670000     2.8981920000    -0.2136280000
    2      F       0.5020480000     2.2573730000     0.0497810000
    3      F      -1.1586370000     3.3711090000     0.8029540000
    4      F      -1.1135680000     0.8705350000     0.4853840000
    5      F      -1.1727470000     2.5551530000    -1.1988850000
 ----------------------------------------------------------------

    9    -435.3654529552      4.46E-09 Convergence criterion met
 Total energy in the final basis set = -435.3654529552
  Term symbol:  2 (-) A                                     R^2 =  5.10635e-12
  Excitation energy:                                             293.259776 eV
  Term symbol:  3 (-) A                                     R^2 =  3.72473e-12
  Excitation energy:                                             295.066174 eV
  Term symbol:  4 (-) A                                     R^2 =  1.02611e-12
  Excitation energy:                                             302.484291 eV
  Term symbol:  5 (-) A                                     R^2 =  6.71532e-13
  Excitation energy:                                             303.978938 eV
  Term symbol:  6 (-) A                                     R^2 =  2.04598e-12
  Excitation energy:                                             304.660171 eV
  Term symbol:  7 (-) A                                     R^2 =  7.11861e-12
  Excitation energy:                                             305.634224 eV
  Term symbol:  8 (-) A                                     R^2 =  9.86409e-13
  Excitation energy:                                             306.053339 eV
  Term symbol:  9 (-) A                                     R^2 =  4.59094e-13
  Excitation energy:                                             307.510216 eV
  Term symbol:  10 (-) A                                    R^2 =  2.01537e-11
  Excitation energy:                                             312.151351 eV
  Excited state 10 (A)                                             [converged]
  Term symbol:  11 (-) A                                    R^2 =  1.41139e-11
  Excitation energy:                                             313.621856 eV
  Excited state 11 (A)                                             [converged]
  Term symbol:  12 (-) A                                    R^2 =  9.24766e-13
  Excitation energy:                                             314.195700 eV
  Excited state 12 (A)                                             [converged]
  Term symbol:  13 (-) A                                    R^2 =  1.83908e-12
  Excitation energy:                                             314.289351 eV
  Excited state 13 (A)                                             [converged]
  Term symbol:  14 (-) A                                    R^2 =  1.27039e-12
  Excitation energy:                                             314.639721 eV
  Excited state 14 (A)                                             [converged]
  Term symbol:  15 (-) A                                    R^2 =  9.48644e-12
  Excitation energy:                                             314.892877 eV
  Excited state 15 (A)                                             [converged]
  Term symbol:  16 (-) A                                    R^2 =  3.45957e-12
  Excitation energy:                                             320.188061 eV
  Excited state 16 (A)                                             [converged]
  Term symbol:  17 (-) A                                    R^2 =  1.28417e-11
  Excitation energy:                                             320.735847 eV
  Excited state 17 (A)                                         [not converged]
  Term symbol:  18 (-) A                                    R^2 =  4.94454e-05
  Excitation energy:                                             331.766253 eV
  Excited state 18 (A)                                         [not converged]
  Term symbol:  19 (-) A                                    R^2 =  9.25919e-05
  Excitation energy:                                             331.937682 eV
  Excited state 19 (A)                                         [not converged]
  Term symbol:  20 (-) A                                    R^2 =  3.49255e-03
  Excitation energy:                                             332.295904 eV
  Excited state 20 (A)                                         [not converged]
  Term symbol:  21 (-) A                                    R^2 =  2.16303e-03
  Excitation energy:                                             332.390365 eV

                    Orbital Energies (a.u.)
 --------------------------------------------------------------

 Alpha MOs
 -- Occupied --
-26.523 -26.507 -26.490 -25.987 -11.729  -1.920  -1.825  -1.780
 -1.258  -1.091  -0.996  -0.989  -0.932  -0.833  -0.823  -0.809
 -0.793  -0.782  -0.360  -0.359  -0.355

 Beta MOs
 -- Occupied --
-26.523 -26.507 -26.490 -25.987 -11.729  -1.920  -1.825  -1.780
 -1.258  -1.091  -0.996  -0.989  -0.932  -0.833  -0.823  -0.809
 -0.793  -0.782  -0.360  -0.359  -0.355

          Ground-State Mulliken Net Atomic Charges

     Atom                 Charge (a.u.)    Spin (a.u.)
  --------------------------------------------------------
      1 C                     1.235160       0.000000
      2 F                    -0.043715       0.000000
      3 F                    -0.203225       0.000000
      4 F                    -0.852342       0.000000
      5 F                    -0.135878       0.000000
  --------------------------------------------------------
  Sum of atomic charges =     0.000000

                    Cartesian Multipole Moments
 -----------------------------------------------------------------
    Charge (ESU x 10^10)
                 0.0000
    Dipole Moment (Debye)
         X       3.0230      Y       7.9667      Z      -3.0053
       Tot       9.0354
    Quadrupole Moments (Debye-Ang)
        XX     -27.2377     XY       0.0017     YY       7.5624
        XZ       2.6327     YZ      -5.1706     ZZ     -23.7175

 Total job time:  2190.85s(wall), 3573.45s(cpu)
        *  Thank you very much for using Q-Chem.  Have a nice day.  *
