 Q-Chem 4.3, Q-Chem, Inc., Pleasanton, CA (2015)
 Q-Chem 4.3.0 for Intel X86 Linux

User input:
--------------------------------------------------------------
$comment
XAS calculation for the 2b valence excited for water using cvs-adc(2)-x + 6-311+G* basis set
job 1 - determination of HF orbitals
$end

$molecule
0 1
6  -0.473687  2.995888  -0.237732
9  0.492125  2.268809  0.054873
9  -1.136652  3.444489  0.768523
9  -1.133485  0.665572  0.537954
9  -1.166809  2.61334  -1.207111
$end

$rem
jobtype      sp
sym_ignore true
exchange     hf
basis        6-31G*
unrestricted true
$end

--------------------------------------------------------------

   14    -435.3385103818      4.76E-06 Convergence criterion met
 Total energy in the final basis set = -435.3385103818
 Total job time:  3.73s(wall), 16.54s(cpu)
        *  Thank you very much for using Q-Chem.  Have a nice day.  *
 Q-Chem 4.3, Q-Chem, Inc., Pleasanton, CA (2015)
 Q-Chem 4.3.0 for Intel X86 Linux

User input:
--------------------------------------------------------------

$comment
job3 - cvs-adc(2) calculation
$end

$molecule
read
$end

$rem
mem_total 3000
mem_static 1500
sym_ignore true
scf_guess read
method cvs-adc(2)
basis 6-31G*
ee_singlets 20
cc_rest_occ 5                  !only excitations from the lowest N orbitals
unrestricted  true
max_scf_cycles 200
$end
--------------------------------------------------------------

             Standard Nuclear Orientation (Angstroms)
    I     Atom           X                Y                Z
 ----------------------------------------------------------------
    1      C      -0.4736870000     2.9958880000    -0.2377320000
    2      F       0.4921250000     2.2688090000     0.0548730000
    3      F      -1.1366520000     3.4444890000     0.7685230000
    4      F      -1.1334850000     0.6655720000     0.5379540000
    5      F      -1.1668090000     2.6133400000    -1.2071110000
 ----------------------------------------------------------------

    9    -435.3385109658      8.52E-09 Convergence criterion met
 Total energy in the final basis set = -435.3385109658
  Term symbol:  2 (-) A                                     R^2 =  1.08321e-13
  Excitation energy:                                             293.068413 eV
  Term symbol:  3 (-) A                                     R^2 =  2.19567e-13
  Excitation energy:                                             294.814728 eV
  Term symbol:  4 (-) A                                     R^2 =  9.37164e-14
  Excitation energy:                                             302.842024 eV
  Term symbol:  5 (-) A                                     R^2 =  1.07630e-13
  Excitation energy:                                             303.781647 eV
  Term symbol:  6 (-) A                                     R^2 =  1.31777e-13
  Excitation energy:                                             304.104600 eV
  Term symbol:  7 (-) A                                     R^2 =  1.65976e-13
  Excitation energy:                                             304.932768 eV
  Term symbol:  8 (-) A                                     R^2 =  7.72339e-14
  Excitation energy:                                             305.790367 eV
  Term symbol:  9 (-) A                                     R^2 =  1.09468e-13
  Excitation energy:                                             306.102521 eV
  Term symbol:  10 (-) A                                    R^2 =  7.51172e-13
  Excitation energy:                                             312.169123 eV
  Excited state 10 (A)                                             [converged]
  Term symbol:  11 (-) A                                    R^2 =  3.27401e-13
  Excitation energy:                                             313.610596 eV
  Excited state 11 (A)                                             [converged]
  Term symbol:  12 (-) A                                    R^2 =  1.14262e-13
  Excitation energy:                                             313.797757 eV
  Excited state 12 (A)                                             [converged]
  Term symbol:  13 (-) A                                    R^2 =  2.95090e-13
  Excitation energy:                                             313.866062 eV
  Excited state 13 (A)                                             [converged]
  Term symbol:  14 (-) A                                    R^2 =  2.80031e-13
  Excitation energy:                                             314.332560 eV
  Excited state 14 (A)                                             [converged]
  Term symbol:  15 (-) A                                    R^2 =  3.96997e-13
  Excitation energy:                                             314.383138 eV
  Excited state 15 (A)                                             [converged]
  Term symbol:  16 (-) A                                    R^2 =  1.16576e-12
  Excitation energy:                                             318.268910 eV
  Excited state 16 (A)                                             [converged]
  Term symbol:  17 (-) A                                    R^2 =  2.39083e-12
  Excitation energy:                                             318.853503 eV
  Excited state 17 (A)                                         [not converged]
  Term symbol:  18 (-) A                                    R^2 =  1.07167e-04
  Excitation energy:                                             323.303299 eV
  Excited state 18 (A)                                             [converged]
  Term symbol:  19 (-) A                                    R^2 =  1.12920e-07
  Excitation energy:                                             323.314239 eV
  Excited state 19 (A)                                             [converged]
  Term symbol:  20 (-) A                                    R^2 =  1.64687e-07
  Excitation energy:                                             323.657111 eV
  Excited state 20 (A)                                             [converged]
  Term symbol:  21 (-) A                                    R^2 =  7.41448e-08
  Excitation energy:                                             323.657227 eV

                    Orbital Energies (a.u.)
 --------------------------------------------------------------

 Alpha MOs
 -- Occupied --
-26.530 -26.528 -26.521 -25.971 -11.741  -1.923  -1.826  -1.812
 -1.231  -1.104  -1.004  -1.002  -0.944  -0.847  -0.842  -0.817
 -0.810  -0.801  -0.339  -0.338  -0.325

 Beta MOs
 -- Occupied --
-26.530 -26.528 -26.521 -25.971 -11.741  -1.923  -1.826  -1.812
 -1.231  -1.104  -1.004  -1.002  -0.944  -0.847  -0.842  -0.817
 -0.810  -0.801  -0.339  -0.338  -0.325

          Ground-State Mulliken Net Atomic Charges

     Atom                 Charge (a.u.)    Spin (a.u.)
  --------------------------------------------------------
      1 C                     1.211904       0.000000
      2 F                    -0.072411       0.000000
      3 F                    -0.164516       0.000000
      4 F                    -0.857876       0.000000
      5 F                    -0.117102       0.000000
  --------------------------------------------------------
  Sum of atomic charges =     0.000000

                    Cartesian Multipole Moments
 -----------------------------------------------------------------
    Charge (ESU x 10^10)
                 0.0000
    Dipole Moment (Debye)
         X       2.9311      Y       9.3682      Z      -3.2982
       Tot      10.3553
    Quadrupole Moments (Debye-Ang)
        XX     -27.2031     XY      -1.6339     YY      12.1099
        XZ       2.9336     YZ      -5.1747     ZZ     -23.7089

 Total job time:  2435.06s(wall), 3946.73s(cpu)
        *  Thank you very much for using Q-Chem.  Have a nice day.  *
