 Q-Chem 4.3, Q-Chem, Inc., Pleasanton, CA (2015)
 Q-Chem 4.3.0 for Intel X86 Linux

User input:
--------------------------------------------------------------
$comment
XAS calculation for the 2b valence excited for water using cvs-adc(2)-x + 6-311+G* basis set
job 1 - determination of HF orbitals
$end

$molecule
0 1
6  -0.69934  2.34967  0.070703
9  0.60215  2.34967  -0.0
9  -1.13316  3.29245  0.78541
9  -1.13317  1.1981  0.42375
9  -1.13317  2.55847  -1.20916
$end

$rem
jobtype      sp
sym_ignore true
exchange     hf
basis        6-31G*
unrestricted true
$end

--------------------------------------------------------------

    8    -435.6385643676      3.36E-06 Convergence criterion met
 Total energy in the final basis set = -435.6385643676
 Total job time:  70.47s(wall), 9.89s(cpu)
        *  Thank you very much for using Q-Chem.  Have a nice day.  *
 Q-Chem 4.3, Q-Chem, Inc., Pleasanton, CA (2015)
 Q-Chem 4.3.0 for Intel X86 Linux

User input:
--------------------------------------------------------------

$comment
job3 - cvs-adc(2) calculation
$end

$molecule
read
$end

$rem
mem_total 3000
mem_static 1500
sym_ignore true
scf_guess read
method cvs-adc(2)
basis 6-31G*
ee_singlets 20
cc_rest_occ 5                  !only excitations from the lowest N orbitals
unrestricted  true
max_scf_cycles 200
$end
--------------------------------------------------------------

             Standard Nuclear Orientation (Angstroms)
    I     Atom           X                Y                Z
 ----------------------------------------------------------------
    1      C      -0.6993400000     2.3496700000     0.0707030000
    2      F       0.6021500000     2.3496700000     0.0000000000
    3      F      -1.1331600000     3.2924500000     0.7854100000
    4      F      -1.1331700000     1.1981000000     0.4237500000
    5      F      -1.1331700000     2.5584700000    -1.2091600000
 ----------------------------------------------------------------

    5    -435.6385643273      3.83E-09 Convergence criterion met
 Total energy in the final basis set = -435.6385643273
  Term symbol:  2 (-) A                                     R^2 =  2.28966e-14
  Excitation energy:                                             300.271458 eV
  Term symbol:  3 (-) A                                     R^2 =  7.92107e-14
  Excitation energy:                                             301.896183 eV
  Term symbol:  4 (-) A                                     R^2 =  3.84084e-14
  Excitation energy:                                             302.397045 eV
  Term symbol:  5 (-) A                                     R^2 =  1.13977e-13
  Excitation energy:                                             302.726765 eV
  Term symbol:  6 (-) A                                     R^2 =  5.12914e-14
  Excitation energy:                                             304.032949 eV
  Term symbol:  7 (-) A                                     R^2 =  6.60723e-14
  Excitation energy:                                             304.067472 eV
  Term symbol:  8 (-) A                                     R^2 =  4.25468e-14
  Excitation energy:                                             304.919899 eV
  Term symbol:  9 (-) A                                     R^2 =  9.16222e-14
  Excitation energy:                                             306.559594 eV
  Term symbol:  10 (-) A                                    R^2 =  1.91938e-13
  Excitation energy:                                             312.814925 eV
  Excited state 10 (A)                                             [converged]
  Term symbol:  11 (-) A                                    R^2 =  1.97643e-13
  Excitation energy:                                             313.566538 eV
  Excited state 11 (A)                                             [converged]
  Term symbol:  12 (-) A                                    R^2 =  6.68902e-14
  Excitation energy:                                             313.609945 eV
  Excited state 12 (A)                                             [converged]
  Term symbol:  13 (-) A                                    R^2 =  7.34287e-14
  Excitation energy:                                             313.754857 eV
  Excited state 13 (A)                                             [converged]
  Term symbol:  14 (-) A                                    R^2 =  7.20112e-14
  Excitation energy:                                             314.012150 eV
  Excited state 14 (A)                                             [converged]
  Term symbol:  15 (-) A                                    R^2 =  4.36107e-13
  Excitation energy:                                             314.123286 eV
  Excited state 15 (A)                                             [converged]
  Term symbol:  16 (-) A                                    R^2 =  1.85247e-13
  Excitation energy:                                             314.155690 eV
  Excited state 16 (A)                                             [converged]
  Term symbol:  17 (-) A                                    R^2 =  8.52282e-13
  Excitation energy:                                             314.573153 eV
  Excited state 17 (A)                                             [converged]
  Term symbol:  18 (-) A                                    R^2 =  3.28650e-07
  Excitation energy:                                             330.202221 eV
  Excited state 18 (A)                                             [converged]
  Term symbol:  19 (-) A                                    R^2 =  2.57892e-07
  Excitation energy:                                             330.227052 eV
  Excited state 19 (A)                                             [converged]
  Term symbol:  20 (-) A                                    R^2 =  6.42261e-07
  Excitation energy:                                             330.236500 eV
  Excited state 20 (A)                                             [converged]
  Term symbol:  21 (-) A                                    R^2 =  1.57435e-07
  Excitation energy:                                             330.259444 eV

                    Orbital Energies (a.u.)
 --------------------------------------------------------------

 Alpha MOs
 -- Occupied --
-26.395 -26.385 -26.374 -26.342 -11.606  -1.821  -1.708  -1.686
 -1.637  -1.008  -0.901  -0.895  -0.882  -0.762  -0.759  -0.719
 -0.710  -0.683  -0.683  -0.661  -0.657

 Beta MOs
 -- Occupied --
-26.395 -26.385 -26.374 -26.342 -11.606  -1.821  -1.708  -1.686
 -1.637  -1.008  -0.901  -0.895  -0.882  -0.762  -0.759  -0.719
 -0.710  -0.683  -0.683  -0.661  -0.657

          Ground-State Mulliken Net Atomic Charges

     Atom                 Charge (a.u.)    Spin (a.u.)
  --------------------------------------------------------
      1 C                     1.306446       0.000000
      2 F                    -0.329176       0.000000
      3 F                    -0.281147       0.000000
      4 F                    -0.304088       0.000000
      5 F                    -0.392036       0.000000
  --------------------------------------------------------
  Sum of atomic charges =     0.000000

                    Cartesian Multipole Moments
 -----------------------------------------------------------------
    Charge (ESU x 10^10)
                 0.0000
    Dipole Moment (Debye)
         X      -0.0013      Y       0.0013      Z       0.7484
       Tot       0.7484
    Quadrupole Moments (Debye-Ang)
        XX     -24.9342     XY      -0.0047     YY     -24.6697
        XZ      -0.7332     YZ       1.9051     ZZ     -25.1588

 Total job time:  1971.70s(wall), 3202.36s(cpu)
        *  Thank you very much for using Q-Chem.  Have a nice day.  *
