 Q-Chem 4.3, Q-Chem, Inc., Pleasanton, CA (2015)
 Q-Chem 4.3.0 for Intel X86 Linux

User input:
--------------------------------------------------------------
$comment
XAS calculation for the 2b valence excited for water using cvs-adc(2)-x + 6-311+G* basis set
job 1 - determination of HF orbitals
$end

$molecule
0 1
6  -0.276056  2.928603  -0.378289
9  0.863334  2.970098  -0.282712
9  -1.008205  3.165396  0.7497
9  -2.081834  0.127252  1.186617
9  -0.879178  2.86004  -1.413371
$end

$rem
jobtype      sp
sym_ignore true
exchange     hf
basis        6-31G*
unrestricted true
$end

--------------------------------------------------------------

   13    -435.2767541605      4.65E-06 Convergence criterion met
 Total energy in the final basis set = -435.2767541605
 Total job time:  3.48s(wall), 13.07s(cpu)
        *  Thank you very much for using Q-Chem.  Have a nice day.  *
 Q-Chem 4.3, Q-Chem, Inc., Pleasanton, CA (2015)
 Q-Chem 4.3.0 for Intel X86 Linux

User input:
--------------------------------------------------------------

$comment
job3 - cvs-adc(2) calculation
$end

$molecule
read
$end

$rem
mem_total 3000
mem_static 1500
sym_ignore true
scf_guess read
method cvs-adc(2)
basis 6-31G*
ee_singlets 20
cc_rest_occ 5                  !only excitations from the lowest N orbitals
unrestricted  true
max_scf_cycles 200
$end
--------------------------------------------------------------

             Standard Nuclear Orientation (Angstroms)
    I     Atom           X                Y                Z
 ----------------------------------------------------------------
    1      C      -0.2760560000     2.9286030000    -0.3782890000
    2      F       0.8633340000     2.9700980000    -0.2827120000
    3      F      -1.0082050000     3.1653960000     0.7497000000
    4      F      -2.0818340000     0.1272520000     1.1866170000
    5      F      -0.8791780000     2.8600400000    -1.4133710000
 ----------------------------------------------------------------

    9    -435.2767543652      3.71E-09 Convergence criterion met
 Total energy in the final basis set = -435.2767543652
  Term symbol:  2 (-) A                                     R^2 =  2.82756e-11
  Excitation energy:                                             294.521249 eV
  Term symbol:  3 (-) A                                     R^2 =  1.56510e-11
  Excitation energy:                                             296.424261 eV
  Term symbol:  4 (-) A                                     R^2 =  1.00486e-10
  Excitation energy:                                             301.144660 eV
  Term symbol:  5 (-) A                                     R^2 =  9.13807e-11
  Excitation energy:                                             303.087672 eV
  Term symbol:  6 (-) A                                     R^2 =  8.57152e-11
  Excitation energy:                                             304.526476 eV
  Term symbol:  7 (-) A                                     R^2 =  6.81567e-11
  Excitation energy:                                             306.213193 eV
  Term symbol:  8 (-) A                                     R^2 =  1.28359e-10
  Excitation energy:                                             307.708678 eV
  Term symbol:  9 (-) A                                     R^2 =  6.77628e-11
  Excitation energy:                                             309.656255 eV
  Term symbol:  10 (-) A                                    R^2 =  2.35521e-11
  Excitation energy:                                             313.287077 eV
  Excited state 10 (A)                                             [converged]
  Term symbol:  11 (-) A                                    R^2 =  7.95378e-11
  Excitation energy:                                             313.929690 eV
  Excited state 11 (A)                                             [converged]
  Term symbol:  12 (-) A                                    R^2 =  6.13640e-11
  Excitation energy:                                             314.238891 eV
  Excited state 12 (A)                                             [converged]
  Term symbol:  13 (-) A                                    R^2 =  3.20248e-11
  Excitation energy:                                             314.863760 eV
  Excited state 13 (A)                                             [converged]
  Term symbol:  14 (-) A                                    R^2 =  7.68623e-11
  Excitation energy:                                             315.033201 eV
  Excited state 14 (A)                                             [converged]
  Term symbol:  15 (-) A                                    R^2 =  1.64383e-11
  Excitation energy:                                             315.574765 eV
  Excited state 15 (A)                                             [converged]
  Term symbol:  16 (-) A                                    R^2 =  1.55908e-10
  Excitation energy:                                             315.799723 eV
  Excited state 16 (A)                                             [converged]
  Term symbol:  17 (-) A                                    R^2 =  1.24557e-11
  Excitation energy:                                             316.368443 eV
  Excited state 17 (A)                                         [not converged]
  Term symbol:  18 (-) A                                    R^2 =  8.36552e-05
  Excitation energy:                                             325.084981 eV
  Excited state 18 (A)                                             [converged]
  Term symbol:  19 (-) A                                    R^2 =  6.66499e-09
  Excitation energy:                                             325.093309 eV
  Excited state 19 (A)                                         [not converged]
  Term symbol:  20 (-) A                                    R^2 =  5.21844e-01
  Excitation energy:                                             329.262925 eV
  Excited state 20 (A)                                         [not converged]
  Term symbol:  21 (-) A                                    R^2 =  6.54631e-03
  Excitation energy:                                             329.714259 eV

                    Orbital Energies (a.u.)
 --------------------------------------------------------------

 Alpha MOs
 -- Occupied --
-26.648 -26.617 -26.532 -25.875 -11.805  -2.066  -1.965  -1.810
 -1.201  -1.138  -1.120  -1.085  -1.063  -0.941  -0.932  -0.889
 -0.838  -0.837  -0.249  -0.249  -0.237

 Beta MOs
 -- Occupied --
-26.648 -26.617 -26.532 -25.875 -11.805  -2.066  -1.965  -1.810
 -1.201  -1.138  -1.120  -1.085  -1.063  -0.941  -0.932  -0.889
 -0.838  -0.837  -0.249  -0.249  -0.237

          Ground-State Mulliken Net Atomic Charges

     Atom                 Charge (a.u.)    Spin (a.u.)
  --------------------------------------------------------
      1 C                     1.204303       0.000000
      2 F                     0.000134       0.000000
      3 F                    -0.196268       0.000000
      4 F                    -0.940893       0.000000
      5 F                    -0.067276       0.000000
  --------------------------------------------------------
  Sum of atomic charges =     0.000000

                    Cartesian Multipole Moments
 -----------------------------------------------------------------
    Charge (ESU x 10^10)
                 0.0000
    Dipole Moment (Debye)
         X       8.5269      Y      12.2755      Z      -7.4055
       Tot      16.6805
    Quadrupole Moments (Debye-Ang)
        XX     -41.3586     XY      -0.8710     YY      14.8944
        XZ      11.6707     YZ      -6.9519     ZZ     -27.8895

 Total job time:  2125.08s(wall), 3479.30s(cpu)
        *  Thank you very much for using Q-Chem.  Have a nice day.  *
