 Q-Chem 4.3, Q-Chem, Inc., Pleasanton, CA (2015)
 Q-Chem 4.3.0 for Intel X86 Linux

User input:
--------------------------------------------------------------
$comment
XAS calculation for the 2b valence excited for water using cvs-adc(2)-x + 6-311+G* basis set
job 1 - determination of HF orbitals
$end

$molecule
0 1
6  -0.428269  2.838011  -0.232701
9  0.681846  2.545109  -0.108383
9  -1.084799  3.209496  0.74237
9  -1.527085  0.655292  0.771355
9  -1.024234  2.669299  -1.259782
$end

$rem
jobtype      sp
sym_ignore true
exchange     hf
basis        6-31G*
unrestricted true
$end

--------------------------------------------------------------

    9    -435.3802796354      6.74E-06 Convergence criterion met
 Total energy in the final basis set = -435.3802796354
 Total job time:  2.54s(wall), 11.23s(cpu)
        *  Thank you very much for using Q-Chem.  Have a nice day.  *
 Q-Chem 4.3, Q-Chem, Inc., Pleasanton, CA (2015)
 Q-Chem 4.3.0 for Intel X86 Linux

User input:
--------------------------------------------------------------

$comment
job3 - cvs-adc(2) calculation
$end

$molecule
read
$end

$rem
mem_total 3000
mem_static 1500
sym_ignore true
scf_guess read
method cvs-adc(2)
basis 6-31G*
ee_singlets 20
cc_rest_occ 5                  !only excitations from the lowest N orbitals
unrestricted  true
max_scf_cycles 200
$end
--------------------------------------------------------------

             Standard Nuclear Orientation (Angstroms)
    I     Atom           X                Y                Z
 ----------------------------------------------------------------
    1      C      -0.4282690000     2.8380110000    -0.2327010000
    2      F       0.6818460000     2.5451090000    -0.1083830000
    3      F      -1.0847990000     3.2094960000     0.7423700000
    4      F      -1.5270850000     0.6552920000     0.7713550000
    5      F      -1.0242340000     2.6692990000    -1.2597820000
 ----------------------------------------------------------------

    7    -435.3802798210      2.80E-09 Convergence criterion met
 Total energy in the final basis set = -435.3802798210
  Term symbol:  2 (-) A                                     R^2 =  8.63069e-14
  Excitation energy:                                             294.811823 eV
  Term symbol:  3 (-) A                                     R^2 =  5.49465e-14
  Excitation energy:                                             296.728003 eV
  Term symbol:  4 (-) A                                     R^2 =  8.90006e-14
  Excitation energy:                                             303.795550 eV
  Term symbol:  5 (-) A                                     R^2 =  5.31290e-14
  Excitation energy:                                             305.367596 eV
  Term symbol:  6 (-) A                                     R^2 =  7.79623e-14
  Excitation energy:                                             305.635078 eV
  Term symbol:  7 (-) A                                     R^2 =  6.32898e-14
  Excitation energy:                                             307.507218 eV
  Term symbol:  8 (-) A                                     R^2 =  1.54308e-13
  Excitation energy:                                             307.803033 eV
  Term symbol:  9 (-) A                                     R^2 =  1.30285e-13
  Excitation energy:                                             309.620492 eV
  Term symbol:  10 (-) A                                    R^2 =  1.52578e-13
  Excitation energy:                                             312.599764 eV
  Excited state 10 (A)                                             [converged]
  Term symbol:  11 (-) A                                    R^2 =  7.05348e-14
  Excitation energy:                                             314.145206 eV
  Excited state 11 (A)                                             [converged]
  Term symbol:  12 (-) A                                    R^2 =  5.76144e-14
  Excitation energy:                                             314.476692 eV
  Excited state 12 (A)                                             [converged]
  Term symbol:  13 (-) A                                    R^2 =  6.00770e-14
  Excitation energy:                                             314.882971 eV
  Excited state 13 (A)                                             [converged]
  Term symbol:  14 (-) A                                    R^2 =  8.34531e-14
  Excitation energy:                                             314.901398 eV
  Excited state 14 (A)                                             [converged]
  Term symbol:  15 (-) A                                    R^2 =  8.36569e-14
  Excitation energy:                                             315.407652 eV
  Excited state 15 (A)                                             [converged]
  Term symbol:  16 (-) A                                    R^2 =  3.95116e-13
  Excitation energy:                                             317.506817 eV
  Excited state 16 (A)                                             [converged]
  Term symbol:  17 (-) A                                    R^2 =  2.55477e-10
  Excitation energy:                                             318.394812 eV
  Excited state 17 (A)                                             [converged]
  Term symbol:  18 (-) A                                    R^2 =  3.93276e-09
  Excitation energy:                                             331.333987 eV
  Excited state 18 (A)                                             [converged]
  Term symbol:  19 (-) A                                    R^2 =  8.73693e-09
  Excitation energy:                                             331.515260 eV
  Excited state 19 (A)                                             [converged]
  Term symbol:  20 (-) A                                    R^2 =  5.86011e-07
  Excitation energy:                                             332.169724 eV
  Excited state 20 (A)                                             [converged]
  Term symbol:  21 (-) A                                    R^2 =  9.69254e-07
  Excitation energy:                                             332.301002 eV

                    Orbital Energies (a.u.)
 --------------------------------------------------------------

 Alpha MOs
 -- Occupied --
-26.573 -26.544 -26.514 -25.966 -11.743  -2.003  -1.899  -1.843
 -1.221  -1.139  -1.065  -1.051  -1.007  -0.884  -0.877  -0.867
 -0.828  -0.816  -0.331  -0.331  -0.322

 Beta MOs
 -- Occupied --
-26.573 -26.544 -26.514 -25.966 -11.743  -2.003  -1.899  -1.843
 -1.221  -1.139  -1.065  -1.051  -1.007  -0.884  -0.877  -0.867
 -0.828  -0.816  -0.331  -0.331  -0.322

          Ground-State Mulliken Net Atomic Charges

     Atom                 Charge (a.u.)    Spin (a.u.)
  --------------------------------------------------------
      1 C                     1.094108       0.000000
      2 F                    -0.032750       0.000000
      3 F                    -0.113418       0.000000
      4 F                    -0.857969       0.000000
      5 F                    -0.089971       0.000000
  --------------------------------------------------------
  Sum of atomic charges =     0.000000

                    Cartesian Multipole Moments
 -----------------------------------------------------------------
    Charge (ESU x 10^10)
                 0.0000
    Dipole Moment (Debye)
         X       4.7616      Y       8.9106      Z      -4.1832
       Tot      10.9349
    Quadrupole Moments (Debye-Ang)
        XX     -31.3005     XY       0.1462     YY       9.0811
        XZ       5.1316     YZ      -5.2957     ZZ     -24.7562

 Total job time:  1952.70s(wall), 3166.30s(cpu)
        *  Thank you very much for using Q-Chem.  Have a nice day.  *
