 Q-Chem 4.3, Q-Chem, Inc., Pleasanton, CA (2015)
 Q-Chem 4.3.0 for Intel X86 Linux

User input:
--------------------------------------------------------------
$comment
XAS calculation for the 2b valence excited for water using cvs-adc(2)-x + 6-311+G* basis set
job 1 - determination of HF orbitals
$end

$molecule
0 1
6  -0.468417  2.942543  -0.270221
9  0.690106  2.635001  -0.120448
9  -1.02891  3.519016  0.666531
9  -1.598599  0.004154  0.938561
9  -1.002705  2.866808  -1.313136
$end

$rem
jobtype      sp
sym_ignore true
exchange     hf
basis        6-31G*
unrestricted true
$end

--------------------------------------------------------------

   12    -435.3281438818      2.03E-06 Convergence criterion met
 Total energy in the final basis set = -435.3281438818
 Total job time:  35.84s(wall), 13.53s(cpu)
        *  Thank you very much for using Q-Chem.  Have a nice day.  *
 Q-Chem 4.3, Q-Chem, Inc., Pleasanton, CA (2015)
 Q-Chem 4.3.0 for Intel X86 Linux

User input:
--------------------------------------------------------------

$comment
job3 - cvs-adc(2) calculation
$end

$molecule
read
$end

$rem
mem_total 3000
mem_static 1500
sym_ignore true
scf_guess read
method cvs-adc(2)
basis 6-31G*
ee_singlets 20
cc_rest_occ 5                  !only excitations from the lowest N orbitals
unrestricted  true
max_scf_cycles 200
$end
--------------------------------------------------------------

             Standard Nuclear Orientation (Angstroms)
    I     Atom           X                Y                Z
 ----------------------------------------------------------------
    1      C      -0.4684170000     2.9425430000    -0.2702210000
    2      F       0.6901060000     2.6350010000    -0.1204480000
    3      F      -1.0289100000     3.5190160000     0.6665310000
    4      F      -1.5985990000     0.0041540000     0.9385610000
    5      F      -1.0027050000     2.8668080000    -1.3131360000
 ----------------------------------------------------------------

    7    -435.3281439348      9.90E-09 Convergence criterion met
 Total energy in the final basis set = -435.3281439348
  Term symbol:  2 (-) A                                     R^2 =  2.65582e-12
  Excitation energy:                                             294.797461 eV
  Term symbol:  3 (-) A                                     R^2 =  1.78773e-12
  Excitation energy:                                             296.730199 eV
  Term symbol:  4 (-) A                                     R^2 =  6.89832e-12
  Excitation energy:                                             303.251884 eV
  Term symbol:  5 (-) A                                     R^2 =  5.67458e-12
  Excitation energy:                                             304.762355 eV
  Term symbol:  6 (-) A                                     R^2 =  1.14032e-12
  Excitation energy:                                             305.387294 eV
  Term symbol:  7 (-) A                                     R^2 =  1.54005e-12
  Excitation energy:                                             306.905493 eV
  Term symbol:  8 (-) A                                     R^2 =  2.74026e-13
  Excitation energy:                                             307.568958 eV
  Term symbol:  9 (-) A                                     R^2 =  7.50659e-13
  Excitation energy:                                             309.059340 eV
  Term symbol:  10 (-) A                                    R^2 =  1.50966e-12
  Excitation energy:                                             313.011277 eV
  Excited state 10 (A)                                             [converged]
  Term symbol:  11 (-) A                                    R^2 =  1.00635e-11
  Excitation energy:                                             314.215600 eV
  Excited state 11 (A)                                             [converged]
  Term symbol:  12 (-) A                                    R^2 =  4.54784e-12
  Excitation energy:                                             314.696143 eV
  Excited state 12 (A)                                             [converged]
  Term symbol:  13 (-) A                                    R^2 =  3.03919e-12
  Excitation energy:                                             314.889903 eV
  Excited state 13 (A)                                             [converged]
  Term symbol:  14 (-) A                                    R^2 =  4.49899e-12
  Excitation energy:                                             315.086931 eV
  Excited state 14 (A)                                             [converged]
  Term symbol:  15 (-) A                                    R^2 =  7.82122e-13
  Excitation energy:                                             315.116314 eV
  Excited state 15 (A)                                             [converged]
  Term symbol:  16 (-) A                                    R^2 =  3.63254e-12
  Excitation energy:                                             315.396006 eV
  Excited state 16 (A)                                             [converged]
  Term symbol:  17 (-) A                                    R^2 =  1.67634e-12
  Excitation energy:                                             316.237110 eV
  Excited state 17 (A)                                         [not converged]
  Term symbol:  18 (-) A                                    R^2 =  1.47255e-02
  Excitation energy:                                             327.102346 eV
  Excited state 18 (A)                                             [converged]
  Term symbol:  19 (-) A                                    R^2 =  1.64776e-07
  Excitation energy:                                             327.107254 eV
  Excited state 19 (A)                                         [not converged]
  Term symbol:  20 (-) A                                    R^2 =  8.14403e-02
  Excitation energy:                                             327.593357 eV
  Excited state 20 (A)                                         [not converged]
  Term symbol:  21 (-) A                                    R^2 =  4.03437e-06
  Excitation energy:                                             331.714186 eV

                    Orbital Energies (a.u.)
 --------------------------------------------------------------

 Alpha MOs
 -- Occupied --
-26.604 -26.585 -26.569 -25.913 -11.785  -2.029  -1.929  -1.892
 -1.173  -1.169  -1.096  -1.089  -1.039  -0.921  -0.917  -0.900
 -0.879  -0.862  -0.281  -0.281  -0.265

 Beta MOs
 -- Occupied --
-26.604 -26.585 -26.569 -25.913 -11.785  -2.029  -1.929  -1.892
 -1.173  -1.169  -1.096  -1.089  -1.039  -0.921  -0.917  -0.900
 -0.879  -0.862  -0.281  -0.281  -0.265

          Ground-State Mulliken Net Atomic Charges

     Atom                 Charge (a.u.)    Spin (a.u.)
  --------------------------------------------------------
      1 C                     1.167828       0.000000
      2 F                    -0.091453       0.000000
      3 F                    -0.121872       0.000000
      4 F                    -0.906560       0.000000
      5 F                    -0.047943       0.000000
  --------------------------------------------------------
  Sum of atomic charges =     0.000000

                    Cartesian Multipole Moments
 -----------------------------------------------------------------
    Charge (ESU x 10^10)
                 0.0000
    Dipole Moment (Debye)
         X       4.8101      Y      12.4726      Z      -5.4078
       Tot      14.4204
    Quadrupole Moments (Debye-Ang)
        XX     -32.3603     XY      -5.7093     YY      14.3812
        XZ       7.1482     YZ      -4.2761     ZZ     -25.6642

 Total job time:  1945.46s(wall), 3176.18s(cpu)
        *  Thank you very much for using Q-Chem.  Have a nice day.  *
