 Q-Chem 4.3, Q-Chem, Inc., Pleasanton, CA (2015)
 Q-Chem 4.3.0 for Intel X86 Linux

User input:
--------------------------------------------------------------
$comment
XAS calculation for the 2b valence excited for water using cvs-adc(2)-x + 6-311+G* basis set
job 1 - determination of HF orbitals
$end

$molecule
0 1
6  -0.536431  2.746974  -0.133384
9  0.698749  2.625183  -0.118559
9  -1.033017  3.516466  0.669719
9  -1.541482  0.149519  0.876624
9  -1.021612  2.856519  -1.344131
$end

$rem
jobtype      sp
sym_ignore true
exchange     hf
basis        6-31G*
unrestricted true
$end

--------------------------------------------------------------

   14    -435.3460126317      3.17E-06 Convergence criterion met
 Total energy in the final basis set = -435.3460126317
 Total job time:  27.79s(wall), 16.12s(cpu)
        *  Thank you very much for using Q-Chem.  Have a nice day.  *
 Q-Chem 4.3, Q-Chem, Inc., Pleasanton, CA (2015)
 Q-Chem 4.3.0 for Intel X86 Linux

User input:
--------------------------------------------------------------

$comment
job3 - cvs-adc(2) calculation
$end

$molecule
read
$end

$rem
mem_total 3000
mem_static 1500
sym_ignore true
scf_guess read
method cvs-adc(2)
basis 6-31G*
ee_singlets 20
cc_rest_occ 5                  !only excitations from the lowest N orbitals
unrestricted  true
max_scf_cycles 200
$end
--------------------------------------------------------------

             Standard Nuclear Orientation (Angstroms)
    I     Atom           X                Y                Z
 ----------------------------------------------------------------
    1      C      -0.5364310000     2.7469740000    -0.1333840000
    2      F       0.6987490000     2.6251830000    -0.1185590000
    3      F      -1.0330170000     3.5164660000     0.6697190000
    4      F      -1.5414820000     0.1495190000     0.8766240000
    5      F      -1.0216120000     2.8565190000    -1.3441310000
 ----------------------------------------------------------------

    8    -435.3460127416      8.55E-09 Convergence criterion met
 Total energy in the final basis set = -435.3460127416
  Term symbol:  2 (-) A                                     R^2 =  1.03893e-13
  Excitation energy:                                             294.198381 eV
  Term symbol:  3 (-) A                                     R^2 =  9.43069e-14
  Excitation energy:                                             296.043683 eV
  Term symbol:  4 (-) A                                     R^2 =  6.77454e-14
  Excitation energy:                                             302.228261 eV
  Term symbol:  5 (-) A                                     R^2 =  1.53395e-13
  Excitation energy:                                             303.847884 eV
  Term symbol:  6 (-) A                                     R^2 =  1.79802e-13
  Excitation energy:                                             304.335586 eV
  Term symbol:  7 (-) A                                     R^2 =  7.15913e-14
  Excitation energy:                                             304.640977 eV
  Term symbol:  8 (-) A                                     R^2 =  9.50034e-14
  Excitation energy:                                             305.734340 eV
  Term symbol:  9 (-) A                                     R^2 =  8.88862e-14
  Excitation energy:                                             306.597432 eV
  Term symbol:  10 (-) A                                    R^2 =  1.72123e-13
  Excitation energy:                                             313.150752 eV
  Excited state 10 (A)                                             [converged]
  Term symbol:  11 (-) A                                    R^2 =  1.06451e-13
  Excitation energy:                                             313.891471 eV
  Excited state 11 (A)                                             [converged]
  Term symbol:  12 (-) A                                    R^2 =  6.03439e-14
  Excitation energy:                                             313.986034 eV
  Excited state 12 (A)                                             [converged]
  Term symbol:  13 (-) A                                    R^2 =  1.54892e-13
  Excitation energy:                                             314.021652 eV
  Excited state 13 (A)                                             [converged]
  Term symbol:  14 (-) A                                    R^2 =  1.48321e-13
  Excitation energy:                                             314.210154 eV
  Excited state 14 (A)                                             [converged]
  Term symbol:  15 (-) A                                    R^2 =  4.48857e-13
  Excitation energy:                                             314.350583 eV
  Excited state 15 (A)                                             [converged]
  Term symbol:  16 (-) A                                    R^2 =  1.11792e-13
  Excitation energy:                                             314.583826 eV
  Excited state 16 (A)                                             [converged]
  Term symbol:  17 (-) A                                    R^2 =  5.49731e-13
  Excitation energy:                                             315.450046 eV
  Excited state 17 (A)                                             [converged]
  Term symbol:  18 (-) A                                    R^2 =  1.59519e-12
  Excitation energy:                                             325.736898 eV
  Excited state 18 (A)                                             [converged]
  Term symbol:  19 (-) A                                    R^2 =  1.04816e-11
  Excitation energy:                                             325.807979 eV
  Excited state 19 (A)                                         [not converged]
  Term symbol:  20 (-) A                                    R^2 =  3.53728e-06
  Excitation energy:                                             331.230079 eV
  Excited state 20 (A)                                         [not converged]
  Term symbol:  21 (-) A                                    R^2 =  3.11286e-04
  Excitation energy:                                             331.720776 eV

                    Orbital Energies (a.u.)
 --------------------------------------------------------------

 Alpha MOs
 -- Occupied --
-26.536 -26.527 -26.499 -26.077 -11.735  -1.940  -1.846  -1.795
 -1.301  -1.113  -1.016  -1.005  -0.957  -0.860  -0.846  -0.833
 -0.809  -0.797  -0.418  -0.418  -0.351

 Beta MOs
 -- Occupied --
-26.536 -26.527 -26.499 -26.077 -11.735  -1.940  -1.846  -1.795
 -1.301  -1.113  -1.016  -1.005  -0.957  -0.860  -0.846  -0.833
 -0.809  -0.797  -0.418  -0.418  -0.351

          Ground-State Mulliken Net Atomic Charges

     Atom                 Charge (a.u.)    Spin (a.u.)
  --------------------------------------------------------
      1 C                     1.135359       0.000000
      2 F                    -0.147150       0.000000
      3 F                    -0.116688       0.000000
      4 F                    -0.652371       0.000000
      5 F                    -0.219150       0.000000
  --------------------------------------------------------
  Sum of atomic charges =     0.000000

                    Cartesian Multipole Moments
 -----------------------------------------------------------------
    Charge (ESU x 10^10)
                 0.0000
    Dipole Moment (Debye)
         X       3.1460      Y       7.9593      Z      -2.7043
       Tot       8.9756
    Quadrupole Moments (Debye-Ang)
        XX     -29.6563     XY      -3.3940     YY       0.5406
        XZ       3.8792     YZ      -0.6122     ZZ     -25.8447

 Total job time:  1971.48s(wall), 3216.50s(cpu)
        *  Thank you very much for using Q-Chem.  Have a nice day.  *
