 Q-Chem 4.3, Q-Chem, Inc., Pleasanton, CA (2015)
 Q-Chem 4.3.0 for Intel X86 Linux

User input:
--------------------------------------------------------------
$comment
XAS calculation for the 2b valence excited for water using cvs-adc(2)-x + 6-311+G* basis set
job 1 - determination of HF orbitals
$end

$molecule
0 1
6  -0.54773  2.801188  -0.169009
9  0.641227  2.59304  -0.087299
9  -1.05449  3.604407  0.670916
9  -1.458971  0.047871  0.848084
9  -1.051645  2.881209  -1.317086
$end

$rem
jobtype      sp
sym_ignore true
exchange     hf
basis        6-31G*
unrestricted true
$end

--------------------------------------------------------------

   14    -435.3434333116      2.68E-06 Convergence criterion met
 Total energy in the final basis set = -435.3434333116
 Total job time:  3.66s(wall), 16.87s(cpu)
        *  Thank you very much for using Q-Chem.  Have a nice day.  *
 Q-Chem 4.3, Q-Chem, Inc., Pleasanton, CA (2015)
 Q-Chem 4.3.0 for Intel X86 Linux

User input:
--------------------------------------------------------------

$comment
job3 - cvs-adc(2) calculation
$end

$molecule
read
$end

$rem
mem_total 3000
mem_static 1500
sym_ignore true
scf_guess read
method cvs-adc(2)
basis 6-31G*
ee_singlets 20
cc_rest_occ 5                  !only excitations from the lowest N orbitals
unrestricted  true
max_scf_cycles 200
$end
--------------------------------------------------------------

             Standard Nuclear Orientation (Angstroms)
    I     Atom           X                Y                Z
 ----------------------------------------------------------------
    1      C      -0.5477300000     2.8011880000    -0.1690090000
    2      F       0.6412270000     2.5930400000    -0.0872990000
    3      F      -1.0544900000     3.6044070000     0.6709160000
    4      F      -1.4589710000     0.0478710000     0.8480840000
    5      F      -1.0516450000     2.8812090000    -1.3170860000
 ----------------------------------------------------------------

    7    -435.3434334278      5.76E-09 Convergence criterion met
 Total energy in the final basis set = -435.3434334278
  Term symbol:  2 (-) A                                     R^2 =  8.70712e-14
  Excitation energy:                                             294.327513 eV
  Term symbol:  3 (-) A                                     R^2 =  6.45392e-14
  Excitation energy:                                             296.203202 eV
  Term symbol:  4 (-) A                                     R^2 =  1.21752e-13
  Excitation energy:                                             303.121828 eV
  Term symbol:  5 (-) A                                     R^2 =  7.81636e-14
  Excitation energy:                                             303.549935 eV
  Term symbol:  6 (-) A                                     R^2 =  7.67504e-14
  Excitation energy:                                             305.007867 eV
  Term symbol:  7 (-) A                                     R^2 =  6.46520e-14
  Excitation energy:                                             305.014368 eV
  Term symbol:  8 (-) A                                     R^2 =  5.38678e-14
  Excitation energy:                                             305.623021 eV
  Term symbol:  9 (-) A                                     R^2 =  4.40288e-14
  Excitation energy:                                             306.993447 eV
  Term symbol:  10 (-) A                                    R^2 =  1.57366e-13
  Excitation energy:                                             313.081150 eV
  Excited state 10 (A)                                             [converged]
  Term symbol:  11 (-) A                                    R^2 =  1.01802e-13
  Excitation energy:                                             313.996276 eV
  Excited state 11 (A)                                             [converged]
  Term symbol:  12 (-) A                                    R^2 =  9.78343e-14
  Excitation energy:                                             314.137653 eV
  Excited state 12 (A)                                             [converged]
  Term symbol:  13 (-) A                                    R^2 =  2.83573e-13
  Excitation energy:                                             314.250996 eV
  Excited state 13 (A)                                             [converged]
  Term symbol:  14 (-) A                                    R^2 =  3.13958e-13
  Excitation energy:                                             314.387249 eV
  Excited state 14 (A)                                             [converged]
  Term symbol:  15 (-) A                                    R^2 =  1.02339e-13
  Excitation energy:                                             314.580297 eV
  Excited state 15 (A)                                             [converged]
  Term symbol:  16 (-) A                                    R^2 =  2.27201e-13
  Excitation energy:                                             314.769129 eV
  Excited state 16 (A)                                             [converged]
  Term symbol:  17 (-) A                                    R^2 =  3.62297e-13
  Excitation energy:                                             315.621385 eV
  Excited state 17 (A)                                             [converged]
  Term symbol:  18 (-) A                                    R^2 =  9.27483e-13
  Excitation energy:                                             325.851978 eV
  Excited state 18 (A)                                             [converged]
  Term symbol:  19 (-) A                                    R^2 =  8.99478e-13
  Excitation energy:                                             325.905265 eV
  Excited state 19 (A)                                         [not converged]
  Term symbol:  20 (-) A                                    R^2 =  1.20505e-06
  Excitation energy:                                             331.404106 eV
  Excited state 20 (A)                                         [not converged]
  Term symbol:  21 (-) A                                    R^2 =  1.11575e-06
  Excitation energy:                                             331.562830 eV

                    Orbital Energies (a.u.)
 --------------------------------------------------------------

 Alpha MOs
 -- Occupied --
-26.552 -26.533 -26.528 -26.036 -11.748  -1.957  -1.858  -1.830
 -1.268  -1.126  -1.032  -1.027  -0.974  -0.873  -0.867  -0.846
 -0.833  -0.817  -0.383  -0.383  -0.328

 Beta MOs
 -- Occupied --
-26.552 -26.533 -26.528 -26.036 -11.748  -1.957  -1.858  -1.830
 -1.268  -1.126  -1.032  -1.027  -0.974  -0.873  -0.867  -0.846
 -0.833  -0.817  -0.383  -0.383  -0.328

          Ground-State Mulliken Net Atomic Charges

     Atom                 Charge (a.u.)    Spin (a.u.)
  --------------------------------------------------------
      1 C                     1.150217       0.000000
      2 F                    -0.099474       0.000000
      3 F                    -0.173243       0.000000
      4 F                    -0.716621       0.000000
      5 F                    -0.160880       0.000000
  --------------------------------------------------------
  Sum of atomic charges =     0.000000

                    Cartesian Multipole Moments
 -----------------------------------------------------------------
    Charge (ESU x 10^10)
                 0.0000
    Dipole Moment (Debye)
         X       3.2909      Y       9.1225      Z      -3.4227
       Tot      10.2842
    Quadrupole Moments (Debye-Ang)
        XX     -29.2637     XY      -3.9763     YY       3.0282
        XZ       4.3727     YZ      -1.9841     ZZ     -25.4953

 Total job time:  2055.63s(wall), 3351.36s(cpu)
        *  Thank you very much for using Q-Chem.  Have a nice day.  *
