 Q-Chem 4.3, Q-Chem, Inc., Pleasanton, CA (2015)
 Q-Chem 4.3.0 for Intel X86 Linux

User input:
--------------------------------------------------------------
$comment
XAS calculation for the 2b valence excited for water using cvs-adc(2)-x + 6-311+G* basis set
job 1 - determination of HF orbitals
$end

$molecule
0 1
6  -0.616443  2.836859  -0.13416
9  0.490849  2.376953  0.027331
9  -1.05419  3.600769  0.659587
9  -1.177433  0.342153  0.624181
9  -1.113953  2.772401  -1.222543
$end

$rem
jobtype      sp
sym_ignore true
exchange     hf
basis        6-31G*
unrestricted true
$end

--------------------------------------------------------------

    9    -435.3911498307      9.76E-06 Convergence criterion met
 Total energy in the final basis set = -435.3911498307
 Total job time:  2.51s(wall), 12.15s(cpu)
        *  Thank you very much for using Q-Chem.  Have a nice day.  *
 Q-Chem 4.3, Q-Chem, Inc., Pleasanton, CA (2015)
 Q-Chem 4.3.0 for Intel X86 Linux

User input:
--------------------------------------------------------------

$comment
job3 - cvs-adc(2) calculation
$end

$molecule
read
$end

$rem
mem_total 3000
mem_static 1500
sym_ignore true
scf_guess read
method cvs-adc(2)
basis 6-31G*
ee_singlets 20
cc_rest_occ 5                  !only excitations from the lowest N orbitals
unrestricted  true
max_scf_cycles 200
$end
--------------------------------------------------------------

             Standard Nuclear Orientation (Angstroms)
    I     Atom           X                Y                Z
 ----------------------------------------------------------------
    1      C      -0.6164430000     2.8368590000    -0.1341600000
    2      F       0.4908490000     2.3769530000     0.0273310000
    3      F      -1.0541900000     3.6007690000     0.6595870000
    4      F      -1.1774330000     0.3421530000     0.6241810000
    5      F      -1.1139530000     2.7724010000    -1.2225430000
 ----------------------------------------------------------------

    7    -435.3911505152      8.31E-09 Convergence criterion met
 Total energy in the final basis set = -435.3911505152
  Term symbol:  2 (-) A                                     R^2 =  1.83368e-13
  Excitation energy:                                             294.947263 eV
  Term symbol:  3 (-) A                                     R^2 =  3.75091e-13
  Excitation energy:                                             296.935062 eV
  Term symbol:  4 (-) A                                     R^2 =  8.90455e-14
  Excitation energy:                                             303.972375 eV
  Term symbol:  5 (-) A                                     R^2 =  6.20587e-13
  Excitation energy:                                             305.424654 eV
  Term symbol:  6 (-) A                                     R^2 =  1.90550e-13
  Excitation energy:                                             306.080460 eV
  Term symbol:  7 (-) A                                     R^2 =  3.76971e-13
  Excitation energy:                                             306.507332 eV
  Term symbol:  8 (-) A                                     R^2 =  5.26335e-14
  Excitation energy:                                             308.279328 eV
  Term symbol:  9 (-) A                                     R^2 =  9.96893e-14
  Excitation energy:                                             308.722106 eV
  Term symbol:  10 (-) A                                    R^2 =  5.43365e-13
  Excitation energy:                                             312.734533 eV
  Excited state 10 (A)                                             [converged]
  Term symbol:  11 (-) A                                    R^2 =  4.86553e-13
  Excitation energy:                                             314.095830 eV
  Excited state 11 (A)                                             [converged]
  Term symbol:  12 (-) A                                    R^2 =  5.31195e-13
  Excitation energy:                                             314.486008 eV
  Excited state 12 (A)                                             [converged]
  Term symbol:  13 (-) A                                    R^2 =  2.14949e-13
  Excitation energy:                                             314.852496 eV
  Excited state 13 (A)                                             [converged]
  Term symbol:  14 (-) A                                    R^2 =  1.37731e-13
  Excitation energy:                                             315.001671 eV
  Excited state 14 (A)                                             [converged]
  Term symbol:  15 (-) A                                    R^2 =  6.21176e-13
  Excitation energy:                                             315.289378 eV
  Excited state 15 (A)                                             [converged]
  Term symbol:  16 (-) A                                    R^2 =  8.76263e-13
  Excitation energy:                                             316.862778 eV
  Excited state 16 (A)                                             [converged]
  Term symbol:  17 (-) A                                    R^2 =  1.69296e-12
  Excitation energy:                                             317.831842 eV
  Excited state 17 (A)                                         [not converged]
  Term symbol:  18 (-) A                                    R^2 =  3.90432e-05
  Excitation energy:                                             330.808649 eV
  Excited state 18 (A)                                         [not converged]
  Term symbol:  19 (-) A                                    R^2 =  2.76739e-05
  Excitation energy:                                             330.820100 eV
  Excited state 19 (A)                                         [not converged]
  Term symbol:  20 (-) A                                    R^2 =  4.07974e-02
  Excitation energy:                                             331.372654 eV
  Excited state 20 (A)                                             [converged]
  Term symbol:  21 (-) A                                    R^2 =  1.38761e-07
  Excitation energy:                                             331.626926 eV

                    Orbital Energies (a.u.)
 --------------------------------------------------------------

 Alpha MOs
 -- Occupied --
-26.554 -26.540 -26.520 -26.002 -11.738  -1.988  -1.883  -1.858
 -1.248  -1.131  -1.056  -1.048  -0.997  -0.881  -0.877  -0.857
 -0.836  -0.818  -0.359  -0.359  -0.338

 Beta MOs
 -- Occupied --
-26.554 -26.540 -26.520 -26.002 -11.738  -1.988  -1.883  -1.858
 -1.248  -1.131  -1.056  -1.048  -0.997  -0.881  -0.877  -0.857
 -0.836  -0.818  -0.359  -0.359  -0.338

          Ground-State Mulliken Net Atomic Charges

     Atom                 Charge (a.u.)    Spin (a.u.)
  --------------------------------------------------------
      1 C                     1.084303       0.000000
      2 F                    -0.098203       0.000000
      3 F                    -0.088674       0.000000
      4 F                    -0.797745       0.000000
      5 F                    -0.099681       0.000000
  --------------------------------------------------------
  Sum of atomic charges =     0.000000

                    Cartesian Multipole Moments
 -----------------------------------------------------------------
    Charge (ESU x 10^10)
                 0.0000
    Dipole Moment (Debye)
         X       2.0795      Y       9.4945      Z      -2.8277
       Tot      10.1225
    Quadrupole Moments (Debye-Ang)
        XX     -26.4272     XY      -5.0840     YY       8.2039
        XZ       2.9697     YZ      -2.3349     ZZ     -24.0720

 Total job time:  1959.14s(wall), 3217.27s(cpu)
        *  Thank you very much for using Q-Chem.  Have a nice day.  *
