 Q-Chem 4.3, Q-Chem, Inc., Pleasanton, CA (2015)
 Q-Chem 4.3.0 for Intel X86 Linux

User input:
--------------------------------------------------------------
$comment
XAS calculation for the 2b valence excited for water using cvs-adc(2)-x + 6-311+G* basis set
job 1 - determination of HF orbitals
$end

$molecule
0 1
6  -0.514352  2.848542  -0.228369
9  0.620992  2.474987  -0.058942
9  -1.083876  3.375622  0.722639
9  -1.386522  0.542038  0.709339
9  -1.063066  2.689613  -1.23201
$end

$rem
jobtype      sp
sym_ignore true
exchange     hf
basis        6-31G*
unrestricted true
$end

--------------------------------------------------------------

    9    -435.3890746120      5.49E-06 Convergence criterion met
 Total energy in the final basis set = -435.3890746120
 Total job time:  2.78s(wall), 9.74s(cpu)
        *  Thank you very much for using Q-Chem.  Have a nice day.  *
 Q-Chem 4.3, Q-Chem, Inc., Pleasanton, CA (2015)
 Q-Chem 4.3.0 for Intel X86 Linux

User input:
--------------------------------------------------------------

$comment
job3 - cvs-adc(2) calculation
$end

$molecule
read
$end

$rem
mem_total 3000
mem_static 1500
sym_ignore true
scf_guess read
method cvs-adc(2)
basis 6-31G*
ee_singlets 20
cc_rest_occ 5                  !only excitations from the lowest N orbitals
unrestricted  true
max_scf_cycles 200
$end
--------------------------------------------------------------

             Standard Nuclear Orientation (Angstroms)
    I     Atom           X                Y                Z
 ----------------------------------------------------------------
    1      C      -0.5143520000     2.8485420000    -0.2283690000
    2      F       0.6209920000     2.4749870000    -0.0589420000
    3      F      -1.0838760000     3.3756220000     0.7226390000
    4      F      -1.3865220000     0.5420380000     0.7093390000
    5      F      -1.0630660000     2.6896130000    -1.2320100000
 ----------------------------------------------------------------

    6    -435.3890745440      5.00E-09 Convergence criterion met
 Total energy in the final basis set = -435.3890745440
  Term symbol:  2 (-) A                                     R^2 =  1.01236e-05
  Excitation energy:                                             294.958402 eV
  Term symbol:  3 (-) A                                     R^2 =  6.20000e-06
  Excitation energy:                                             296.895304 eV
  Term symbol:  4 (-) A                                     R^2 =  3.37016e-06
  Excitation energy:                                             303.669241 eV
  Term symbol:  5 (-) A                                     R^2 =  4.18378e-06
  Excitation energy:                                             305.249682 eV
  Term symbol:  6 (-) A                                     R^2 =  6.21052e-07
  Excitation energy:                                             305.657743 eV
  Term symbol:  7 (-) A                                     R^2 =  3.39562e-06
  Excitation energy:                                             307.490268 eV
  Term symbol:  8 (-) A                                     R^2 =  1.24206e-06
  Excitation energy:                                             307.875239 eV
  Term symbol:  9 (-) A                                     R^2 =  2.69929e-06
  Excitation energy:                                             309.572856 eV
  Term symbol:  10 (-) A                                    R^2 =  5.57443e-06
  Excitation energy:                                             312.648390 eV
  Excited state 10 (A)                                         [not converged]
  Term symbol:  11 (-) A                                    R^2 =  2.22905e-06
  Excitation energy:                                             314.191244 eV
  Excited state 11 (A)                                         [not converged]
  Term symbol:  12 (-) A                                    R^2 =  3.49888e-06
  Excitation energy:                                             314.727598 eV
  Excited state 12 (A)                                         [not converged]
  Term symbol:  13 (-) A                                    R^2 =  3.05211e-06
  Excitation energy:                                             314.955726 eV
  Excited state 13 (A)                                         [not converged]
  Term symbol:  14 (-) A                                    R^2 =  4.58714e-06
  Excitation energy:                                             315.057687 eV
  Excited state 14 (A)                                         [not converged]
  Term symbol:  15 (-) A                                    R^2 =  1.24281e-06
  Excitation energy:                                             315.432567 eV
  Excited state 15 (A)                                         [not converged]
  Term symbol:  16 (-) A                                    R^2 =  2.04789e-05
  Excitation energy:                                             317.384326 eV
  Excited state 16 (A)                                         [not converged]
  Term symbol:  17 (-) A                                    R^2 =  1.48619e-05
  Excitation energy:                                             318.340419 eV
  Excited state 17 (A)                                         [not converged]
  Term symbol:  18 (-) A                                    R^2 =  1.63848e-01
  Excitation energy:                                             330.746142 eV
  Excited state 18 (A)                                         [not converged]
  Term symbol:  19 (-) A                                    R^2 =  3.24746e-06
  Excitation energy:                                             331.423920 eV
  Excited state 19 (A)                                         [not converged]
  Term symbol:  20 (-) A                                    R^2 =  2.47051e-06
  Excitation energy:                                             331.609837 eV
  Excited state 20 (A)                                         [not converged]
  Term symbol:  21 (-) A                                    R^2 =  2.67340e-05
  Excitation energy:                                             332.306173 eV

                    Orbital Energies (a.u.)
 --------------------------------------------------------------

 Alpha MOs
 -- Occupied --
-26.566 -26.537 -26.526 -25.980 -11.742  -1.998  -1.892  -1.852
 -1.231  -1.135  -1.060  -1.054  -1.002  -0.881  -0.878  -0.861
 -0.838  -0.820  -0.341  -0.341  -0.330

 Beta MOs
 -- Occupied --
-26.566 -26.537 -26.526 -25.980 -11.742  -1.998  -1.892  -1.852
 -1.231  -1.135  -1.060  -1.054  -1.002  -0.881  -0.878  -0.861
 -0.838  -0.820  -0.341  -0.341  -0.330

          Ground-State Mulliken Net Atomic Charges

     Atom                 Charge (a.u.)    Spin (a.u.)
  --------------------------------------------------------
      1 C                     1.093954       0.000000
      2 F                    -0.102202       0.000000
      3 F                    -0.126151       0.000000
      4 F                    -0.835868       0.000000
      5 F                    -0.029732       0.000000
  --------------------------------------------------------
  Sum of atomic charges =     0.000000

                    Cartesian Multipole Moments
 -----------------------------------------------------------------
    Charge (ESU x 10^10)
                 0.0000
    Dipole Moment (Debye)
         X       3.4243      Y       9.1979      Z      -4.0609
       Tot      10.6216
    Quadrupole Moments (Debye-Ang)
        XX     -29.1391     XY      -2.6962     YY       9.1582
        XZ       4.6128     YZ      -5.3459     ZZ     -24.0901

 Total job time:  2085.72s(wall), 3369.62s(cpu)
        *  Thank you very much for using Q-Chem.  Have a nice day.  *
