 Q-Chem 4.3, Q-Chem, Inc., Pleasanton, CA (2015)
 Q-Chem 4.3.0 for Intel X86 Linux

User input:
--------------------------------------------------------------
$comment
XAS calculation for the 2b valence excited for water using cvs-adc(2)-x + 6-311+G* basis set
job 1 - determination of HF orbitals
$end

$molecule
0 1
6  -0.6222  2.695333  -0.089921
9  0.592584  2.316233  0.016535
9  -1.147263  3.273475  0.788404
9  -1.175744  1.069309  0.477933
9  -1.153321  2.54634  -1.208046
$end

$rem
jobtype      sp
sym_ignore true
exchange     hf
basis        6-31G*
unrestricted true
$end

--------------------------------------------------------------

    8    -435.4996016143      8.90E-06 Convergence criterion met
 Total energy in the final basis set = -435.4996016143
 Total job time:  2.08s(wall), 11.25s(cpu)
        *  Thank you very much for using Q-Chem.  Have a nice day.  *
 Q-Chem 4.3, Q-Chem, Inc., Pleasanton, CA (2015)
 Q-Chem 4.3.0 for Intel X86 Linux

User input:
--------------------------------------------------------------

$comment
job3 - cvs-adc(2) calculation
$end

$molecule
read
$end

$rem
mem_total 3000
mem_static 1500
sym_ignore true
scf_guess read
method cvs-adc(2)
basis 6-31G*
ee_singlets 20
cc_rest_occ 5                  !only excitations from the lowest N orbitals
unrestricted  true
max_scf_cycles 200
$end
--------------------------------------------------------------

             Standard Nuclear Orientation (Angstroms)
    I     Atom           X                Y                Z
 ----------------------------------------------------------------
    1      C      -0.6222000000     2.6953330000    -0.0899210000
    2      F       0.5925840000     2.3162330000     0.0165350000
    3      F      -1.1472630000     3.2734750000     0.7884040000
    4      F      -1.1757440000     1.0693090000     0.4779330000
    5      F      -1.1533210000     2.5463400000    -1.2080460000
 ----------------------------------------------------------------

    7    -435.4996018008      4.56E-09 Convergence criterion met
 Total energy in the final basis set = -435.4996018008
  Term symbol:  2 (-) A                                     R^2 =  5.00559e-14
  Excitation energy:                                             295.765016 eV
  Term symbol:  3 (-) A                                     R^2 =  1.11897e-13
  Excitation energy:                                             297.660534 eV
  Term symbol:  4 (-) A                                     R^2 =  1.39618e-13
  Excitation energy:                                             302.980597 eV
  Term symbol:  5 (-) A                                     R^2 =  2.44557e-13
  Excitation energy:                                             304.035126 eV
  Term symbol:  6 (-) A                                     R^2 =  1.46551e-13
  Excitation energy:                                             305.157791 eV
  Term symbol:  7 (-) A                                     R^2 =  1.06653e-13
  Excitation energy:                                             306.193514 eV
  Term symbol:  8 (-) A                                     R^2 =  1.99801e-13
  Excitation energy:                                             306.443897 eV
  Term symbol:  9 (-) A                                     R^2 =  2.94307e-13
  Excitation energy:                                             308.438399 eV
  Term symbol:  10 (-) A                                    R^2 =  2.71796e-13
  Excitation energy:                                             311.879395 eV
  Excited state 10 (A)                                             [converged]
  Term symbol:  11 (-) A                                    R^2 =  3.85602e-13
  Excitation energy:                                             313.346705 eV
  Excited state 11 (A)                                             [converged]
  Term symbol:  12 (-) A                                    R^2 =  3.65397e-13
  Excitation energy:                                             314.272976 eV
  Excited state 12 (A)                                             [converged]
  Term symbol:  13 (-) A                                    R^2 =  2.53637e-13
  Excitation energy:                                             314.551518 eV
  Excited state 13 (A)                                             [converged]
  Term symbol:  14 (-) A                                    R^2 =  3.18229e-13
  Excitation energy:                                             314.620629 eV
  Excited state 14 (A)                                             [converged]
  Term symbol:  15 (-) A                                    R^2 =  4.21542e-13
  Excitation energy:                                             315.050487 eV
  Excited state 15 (A)                                             [converged]
  Term symbol:  16 (-) A                                    R^2 =  1.33062e-12
  Excitation energy:                                             318.384141 eV
  Excited state 16 (A)                                             [converged]
  Term symbol:  17 (-) A                                    R^2 =  3.53886e-13
  Excitation energy:                                             318.836179 eV
  Excited state 17 (A)                                             [converged]
  Term symbol:  18 (-) A                                    R^2 =  6.33818e-09
  Excitation energy:                                             330.703983 eV
  Excited state 18 (A)                                             [converged]
  Term symbol:  19 (-) A                                    R^2 =  3.12736e-08
  Excitation energy:                                             330.881473 eV
  Excited state 19 (A)                                         [not converged]
  Term symbol:  20 (-) A                                    R^2 =  1.00499e-04
  Excitation energy:                                             331.751368 eV
  Excited state 20 (A)                                         [not converged]
  Term symbol:  21 (-) A                                    R^2 =  3.26248e-04
  Excitation energy:                                             331.861396 eV

                    Orbital Energies (a.u.)
 --------------------------------------------------------------

 Alpha MOs
 -- Occupied --
-26.479 -26.446 -26.430 -26.143 -11.661  -1.896  -1.792  -1.746
 -1.404  -1.056  -0.967  -0.958  -0.910  -0.799  -0.793  -0.787
 -0.763  -0.738  -0.495  -0.494  -0.484

 Beta MOs
 -- Occupied --
-26.479 -26.446 -26.430 -26.143 -11.661  -1.896  -1.792  -1.746
 -1.404  -1.056  -0.967  -0.958  -0.910  -0.799  -0.793  -0.787
 -0.763  -0.738  -0.495  -0.494  -0.484

          Ground-State Mulliken Net Atomic Charges

     Atom                 Charge (a.u.)    Spin (a.u.)
  --------------------------------------------------------
      1 C                     1.227607       0.000000
      2 F                    -0.243601       0.000000
      3 F                    -0.118016       0.000000
      4 F                    -0.654802       0.000000
      5 F                    -0.211187       0.000000
  --------------------------------------------------------
  Sum of atomic charges =     0.000000

                    Cartesian Multipole Moments
 -----------------------------------------------------------------
    Charge (ESU x 10^10)
                 0.0000
    Dipole Moment (Debye)
         X       1.2170      Y       4.7592      Z      -1.3171
       Tot       5.0858
    Quadrupole Moments (Debye-Ang)
        XX     -26.1193     XY      -1.8644     YY      -4.3363
        XZ       1.3227     YZ      -1.6161     ZZ     -24.0992

 Total job time:  1963.92s(wall), 3180.80s(cpu)
        *  Thank you very much for using Q-Chem.  Have a nice day.  *
