 Q-Chem 4.3, Q-Chem, Inc., Pleasanton, CA (2015)
 Q-Chem 4.3.0 for Intel X86 Linux

User input:
--------------------------------------------------------------
$comment
XAS calculation for the 2b valence excited for water using cvs-adc(2)-x + 6-311+G* basis set
job 1 - determination of HF orbitals
$end

$molecule
0 1
6  -0.463517  2.987296  -0.25036
9  0.679544  2.407874  -0.048648
9  -1.122549  3.15961  0.77624
9  -1.403428  0.848396  0.66153
9  -1.085816  2.569184  -1.233024
$end

$rem
jobtype      sp
sym_ignore true
exchange     hf
basis        6-31G*
unrestricted true
$end

--------------------------------------------------------------

   13    -435.3371701872      7.91E-06 Convergence criterion met
 Total energy in the final basis set = -435.3371701872
 Total job time:  3.53s(wall), 13.54s(cpu)
        *  Thank you very much for using Q-Chem.  Have a nice day.  *
 Q-Chem 4.3, Q-Chem, Inc., Pleasanton, CA (2015)
 Q-Chem 4.3.0 for Intel X86 Linux

User input:
--------------------------------------------------------------

$comment
job3 - cvs-adc(2) calculation
$end

$molecule
read
$end

$rem
mem_total 3000
mem_static 1500
sym_ignore true
scf_guess read
method cvs-adc(2)
basis 6-31G*
ee_singlets 20
cc_rest_occ 5                  !only excitations from the lowest N orbitals
unrestricted  true
max_scf_cycles 200
$end
--------------------------------------------------------------

             Standard Nuclear Orientation (Angstroms)
    I     Atom           X                Y                Z
 ----------------------------------------------------------------
    1      C      -0.4635170000     2.9872960000    -0.2503600000
    2      F       0.6795440000     2.4078740000    -0.0486480000
    3      F      -1.1225490000     3.1596100000     0.7762400000
    4      F      -1.4034280000     0.8483960000     0.6615300000
    5      F      -1.0858160000     2.5691840000    -1.2330240000
 ----------------------------------------------------------------

   10    -435.3371708271      6.62E-09 Convergence criterion met
 Total energy in the final basis set = -435.3371708271
  Term symbol:  2 (-) A                                     R^2 =  3.08801e-05
  Excitation energy:                                             293.011043 eV
  Term symbol:  3 (-) A                                     R^2 =  6.09660e-05
  Excitation energy:                                             294.752642 eV
  Term symbol:  4 (-) A                                     R^2 =  1.96379e-05
  Excitation energy:                                             302.609404 eV
  Term symbol:  5 (-) A                                     R^2 =  2.10206e-05
  Excitation energy:                                             304.208979 eV
  Term symbol:  6 (-) A                                     R^2 =  8.08356e-05
  Excitation energy:                                             304.455497 eV
  Term symbol:  7 (-) A                                     R^2 =  6.16251e-06
  Excitation energy:                                             304.705819 eV
  Term symbol:  8 (-) A                                     R^2 =  3.17899e-05
  Excitation energy:                                             306.181496 eV
  Term symbol:  9 (-) A                                     R^2 =  7.23618e-05
  Excitation energy:                                             306.445384 eV
  Term symbol:  10 (-) A                                    R^2 =  1.59208e-04
  Excitation energy:                                             312.084336 eV
  Excited state 10 (A)                                         [not converged]
  Term symbol:  11 (-) A                                    R^2 =  1.45603e-04
  Excitation energy:                                             313.564417 eV
  Excited state 11 (A)                                         [not converged]
  Term symbol:  12 (-) A                                    R^2 =  1.02954e-05
  Excitation energy:                                             313.692347 eV
  Excited state 12 (A)                                         [not converged]
  Term symbol:  13 (-) A                                    R^2 =  4.77284e-05
  Excitation energy:                                             313.759069 eV
  Excited state 13 (A)                                         [not converged]
  Term symbol:  14 (-) A                                    R^2 =  2.28346e-05
  Excitation energy:                                             314.204039 eV
  Excited state 14 (A)                                         [not converged]
  Term symbol:  15 (-) A                                    R^2 =  1.47919e-05
  Excitation energy:                                             314.337540 eV
  Excited state 15 (A)                                         [not converged]
  Term symbol:  16 (-) A                                    R^2 =  4.13832e-05
  Excitation energy:                                             318.503649 eV
  Excited state 16 (A)                                         [not converged]
  Term symbol:  17 (-) A                                    R^2 =  4.32279e-05
  Excitation energy:                                             319.065324 eV
  Excited state 17 (A)                                         [not converged]
  Term symbol:  18 (-) A                                    R^2 =  4.26402e-04
  Excitation energy:                                             323.280994 eV
  Excited state 18 (A)                                         [not converged]
  Term symbol:  19 (-) A                                    R^2 =  2.88185e-03
  Excitation energy:                                             323.291861 eV
  Excited state 19 (A)                                         [not converged]
  Term symbol:  20 (-) A                                    R^2 =  2.52300e-04
  Excitation energy:                                             323.623486 eV
  Excited state 20 (A)                                         [not converged]
  Term symbol:  21 (-) A                                    R^2 =  1.40173e-04
  Excitation energy:                                             323.623624 eV

                    Orbital Energies (a.u.)
 --------------------------------------------------------------

 Alpha MOs
 -- Occupied --
-26.532 -26.529 -26.509 -25.973 -11.737  -1.929  -1.834  -1.801
 -1.233  -1.104  -1.007  -1.002  -0.945  -0.847  -0.839  -0.816
 -0.804  -0.796  -0.341  -0.341  -0.328

 Beta MOs
 -- Occupied --
-26.532 -26.529 -26.509 -25.973 -11.737  -1.929  -1.834  -1.801
 -1.233  -1.104  -1.007  -1.002  -0.945  -0.847  -0.839  -0.816
 -0.804  -0.796  -0.341  -0.341  -0.328

          Ground-State Mulliken Net Atomic Charges

     Atom                 Charge (a.u.)    Spin (a.u.)
  --------------------------------------------------------
      1 C                     1.202028       0.000000
      2 F                    -0.175655       0.000000
      3 F                    -0.065471       0.000000
      4 F                    -0.858036       0.000000
      5 F                    -0.102865       0.000000
  --------------------------------------------------------
  Sum of atomic charges =     0.000000

                    Cartesian Multipole Moments
 -----------------------------------------------------------------
    Charge (ESU x 10^10)
                 0.0000
    Dipole Moment (Debye)
         X       3.4967      Y       8.8743      Z      -3.6604
       Tot      10.2166
    Quadrupole Moments (Debye-Ang)
        XX     -29.7258     XY      -1.4310     YY      12.4537
        XZ       4.0797     YZ      -5.5173     ZZ     -24.0900

 Total job time:  2258.19s(wall), 3767.21s(cpu)
        *  Thank you very much for using Q-Chem.  Have a nice day.  *
