 Q-Chem 4.3, Q-Chem, Inc., Pleasanton, CA (2015)
 Q-Chem 4.3.0 for Intel X86 Linux

User input:
--------------------------------------------------------------
$comment
XAS calculation for the 2b valence excited for water using cvs-adc(2)-x + 6-311+G* basis set
job 1 - determination of HF orbitals
$end

$molecule
0 1
6  -0.447697  2.995276  -0.272246
9  0.512605  2.333901  0.0136
9  -1.161534  3.289799  0.792285
9  -1.217023  0.81906  0.555224
9  -1.138695  2.57553  -1.169263
$end

$rem
jobtype      sp
sym_ignore true
exchange     hf
basis        6-31G*
unrestricted true
$end

--------------------------------------------------------------

   13    -435.3212555328      7.65E-06 Convergence criterion met
 Total energy in the final basis set = -435.3212555328

                    Orbital Energies (a.u.)
 --------------------------------------------------------------

 Alpha MOs
 -- Occupied --
-26.530 -26.528 -26.481 -25.987 -11.718  -1.944  -1.847  -1.771
 -1.246  -1.103  -1.012  -0.997  -0.950  -0.847  -0.825  -0.814
 -0.780  -0.778  -0.353  -0.353  -0.336

 Beta MOs
 -- Occupied --
-26.530 -26.528 -26.481 -25.987 -11.718  -1.944  -1.847  -1.771
 -1.246  -1.103  -1.012  -0.997  -0.950  -0.847  -0.825  -0.814
 -0.780  -0.778  -0.353  -0.353  -0.336

          Ground-State Mulliken Net Atomic Charges

     Atom                 Charge (a.u.)    Spin (a.u.)
  --------------------------------------------------------
      1 C                     1.152149       0.000000
      2 F                    -0.049435       0.000000
      3 F                    -0.191302       0.000000
      4 F                    -0.837909       0.000000
      5 F                    -0.073504       0.000000
  --------------------------------------------------------
  Sum of atomic charges =     0.000000

                    Cartesian Multipole Moments
 -----------------------------------------------------------------
    Charge (ESU x 10^10)
                 0.0000
    Dipole Moment (Debye)
         X       3.3426      Y       8.4075      Z      -3.6212
       Tot       9.7454
    Quadrupole Moments (Debye-Ang)
        XX     -27.9623     XY       0.0186     YY       9.7155
        XZ       3.3394     YZ      -6.5199     ZZ     -23.6172

 Total job time:  8.17s(wall), 13.84s(cpu)
        *  Thank you very much for using Q-Chem.  Have a nice day.  *
 Q-Chem 4.3, Q-Chem, Inc., Pleasanton, CA (2015)
 Q-Chem 4.3.0 for Intel X86 Linux

User input:
--------------------------------------------------------------

$comment
job3 - cvs-adc(2) calculation
$end

$molecule
read
$end

$rem
mem_total 3000
mem_static 1500
sym_ignore true
scf_guess read
method cvs-adc(2)
basis 6-31G*
ee_singlets 20
cc_rest_occ 5                  !only excitations from the lowest N orbitals
unrestricted  true
max_scf_cycles 200
$end
--------------------------------------------------------------

             Standard Nuclear Orientation (Angstroms)
    I     Atom           X                Y                Z
 ----------------------------------------------------------------
    1      C      -0.4476970000     2.9952760000    -0.2722460000
    2      F       0.5126050000     2.3339010000     0.0136000000
    3      F      -1.1615340000     3.2897990000     0.7922850000
    4      F      -1.2170230000     0.8190600000     0.5552240000
    5      F      -1.1386950000     2.5755300000    -1.1692630000
 ----------------------------------------------------------------

   10    -435.3212566918      7.31E-09 Convergence criterion met
 Total energy in the final basis set = -435.3212566918
