 Q-Chem 4.3, Q-Chem, Inc., Pleasanton, CA (2015)
 Q-Chem 4.3.0 for Intel X86 Linux

User input:
--------------------------------------------------------------
$comment
XAS calculation for the 2b valence excited for water using cvs-adc(2)-x + 6-311+G* basis set
job 1 - determination of HF orbitals
$end

$molecule
0 1
6  -0.700367  2.57138  -0.046774
9  0.574312  2.309584  0.016708
9  -1.125147  3.289443  0.769084
9  -1.117632  1.115784  0.433809
9  -1.134206  2.546569  -1.185319
$end

$rem
jobtype      sp
sym_ignore true
exchange     hf
basis        6-31G*
unrestricted true
$end

--------------------------------------------------------------

    8    -435.5626052865      7.15E-06 Convergence criterion met
 Total energy in the final basis set = -435.5626052865
 Total job time:  2.01s(wall), 7.42s(cpu)
        *  Thank you very much for using Q-Chem.  Have a nice day.  *
 Q-Chem 4.3, Q-Chem, Inc., Pleasanton, CA (2015)
 Q-Chem 4.3.0 for Intel X86 Linux

User input:
--------------------------------------------------------------

$comment
job3 - cvs-adc(2) calculation
$end

$molecule
read
$end

$rem
mem_total 3000
mem_static 1500
sym_ignore true
scf_guess read
method cvs-adc(2)
basis 6-31G*
ee_singlets 20
cc_rest_occ 1                  !only excitations from the lowest N orbitals
unrestricted  true
max_scf_cycles 200
$end
--------------------------------------------------------------

             Standard Nuclear Orientation (Angstroms)
    I     Atom           X                Y                Z
 ----------------------------------------------------------------
    1      C      -0.7003670000     2.5713800000    -0.0467740000
    2      F       0.5743120000     2.3095840000     0.0167080000
    3      F      -1.1251470000     3.2894430000     0.7690840000
    4      F      -1.1176320000     1.1157840000     0.4338090000
    5      F      -1.1342060000     2.5465690000    -1.1853190000
 ----------------------------------------------------------------

    6    -435.5626054070      8.13E-09 Convergence criterion met
 Total energy in the final basis set = -435.5626054070
  Term symbol:  2 (-) A                                     R^2 =  2.00921e-08
  Excitation energy:                                             695.792253 eV
  Term symbol:  3 (-) A                                     R^2 =  1.52166e-06
  Excitation energy:                                             695.978613 eV
  Term symbol:  4 (-) A                                     R^2 =  9.76912e-06
  Excitation energy:                                             698.749721 eV
  Term symbol:  5 (-) A                                     R^2 =  4.85451e-06
  Excitation energy:                                             699.604759 eV
  Term symbol:  6 (-) A                                     R^2 =  2.67571e-06
  Excitation energy:                                             701.282783 eV
  Term symbol:  7 (-) A                                     R^2 =  1.12525e-05
  Excitation energy:                                             701.485065 eV
  Term symbol:  8 (-) A                                     R^2 =  1.24637e-06
  Excitation energy:                                             703.801070 eV
  Term symbol:  9 (-) A                                     R^2 =  2.74309e-07
  Excitation energy:                                             704.154510 eV
  Term symbol:  10 (-) A                                    R^2 =  1.31065e-06
  Excitation energy:                                             706.105713 eV
  Excited state 10 (A)                                             [converged]
  Term symbol:  11 (-) A                                    R^2 =  8.27561e-07
  Excitation energy:                                             706.644017 eV
  Excited state 11 (A)                                         [not converged]
  Term symbol:  12 (-) A                                    R^2 =  2.70236e-06
  Excitation energy:                                             707.281450 eV
  Excited state 12 (A)                                             [converged]
  Term symbol:  13 (-) A                                    R^2 =  5.16763e-07
  Excitation energy:                                             707.395950 eV
  Excited state 13 (A)                                         [not converged]
  Term symbol:  14 (-) A                                    R^2 =  2.51846e-06
  Excitation energy:                                             708.310717 eV
  Excited state 14 (A)                                         [not converged]
  Term symbol:  15 (-) A                                    R^2 =  2.38383e-06
  Excitation energy:                                             708.486725 eV
  Excited state 15 (A)                                             [converged]
  Term symbol:  16 (-) A                                    R^2 =  3.51929e-07
  Excitation energy:                                             710.439429 eV
  Excited state 16 (A)                                             [converged]
  Term symbol:  17 (-) A                                    R^2 =  2.74308e-07
  Excitation energy:                                             710.489133 eV
  Excited state 17 (A)                                             [converged]
  Term symbol:  18 (-) A                                    R^2 =  6.17941e-07
  Excitation energy:                                             719.894407 eV
  Excited state 18 (A)                                             [converged]
  Term symbol:  19 (-) A                                    R^2 =  8.03617e-07
  Excitation energy:                                             720.900379 eV
  Excited state 19 (A)                                         [not converged]
  Term symbol:  20 (-) A                                    R^2 =  7.35880e-06
  Excitation energy:                                             722.101804 eV
  Excited state 20 (A)                                         [not converged]
  Term symbol:  21 (-) A                                    R^2 =  6.75778e-03
  Excitation energy:                                             722.893414 eV

                    Orbital Energies (a.u.)
 --------------------------------------------------------------

 Alpha MOs
 -- Occupied --
-26.452 -26.422 -26.376 -26.238 -11.622  -1.886  -1.783  -1.699
 -1.506  -1.038  -0.953  -0.932  -0.903  -0.790  -0.771  -0.765
 -0.727  -0.701  -0.583  -0.578  -0.571

 Beta MOs
 -- Occupied --
-26.452 -26.422 -26.376 -26.238 -11.622  -1.886  -1.783  -1.699
 -1.506  -1.038  -0.953  -0.932  -0.903  -0.790  -0.771  -0.765
 -0.727  -0.701  -0.583  -0.578  -0.571

          Ground-State Mulliken Net Atomic Charges

     Atom                 Charge (a.u.)    Spin (a.u.)
  --------------------------------------------------------
      1 C                     1.219859       0.000000
      2 F                    -0.315564       0.000000
      3 F                    -0.144049       0.000000
      4 F                    -0.544542       0.000000
      5 F                    -0.215703       0.000000
  --------------------------------------------------------
  Sum of atomic charges =     0.000000

                    Cartesian Multipole Moments
 -----------------------------------------------------------------
    Charge (ESU x 10^10)
                 0.0000
    Dipole Moment (Debye)
         X       0.0862      Y       2.9618      Z      -0.6719
       Tot       3.0383
    Quadrupole Moments (Debye-Ang)
        XX     -24.8804     XY      -2.7101     YY     -11.8699
        XZ       0.6449     YZ      -0.6684     ZZ     -24.0988

 Total job time:  232.66s(wall), 1254.86s(cpu)
        *  Thank you very much for using Q-Chem.  Have a nice day.  *
