 Q-Chem 4.3, Q-Chem, Inc., Pleasanton, CA (2015)
 Q-Chem 4.3.0 for Intel X86 Linux

User input:
--------------------------------------------------------------
$comment
XAS calculation for the 2b valence excited for water using cvs-adc(2)-x + 6-311+G* basis set
job 1 - determination of HF orbitals
$end

$molecule
0 1
6  -0.505382  2.687575  -0.169218
9  0.750159  2.656534  -0.157557
9  -1.045002  3.270464  0.710422
9  -1.631827  0.485596  0.864482
9  -0.977905  2.760723  -1.311927
$end

$rem
jobtype      sp
sym_ignore true
exchange     hf
basis        6-31G*
unrestricted true
$end

--------------------------------------------------------------

   10    -435.3854787305      6.54E-06 Convergence criterion met
 Total energy in the final basis set = -435.3854787305
 Total job time:  2.57s(wall), 13.11s(cpu)
        *  Thank you very much for using Q-Chem.  Have a nice day.  *
 Q-Chem 4.3, Q-Chem, Inc., Pleasanton, CA (2015)
 Q-Chem 4.3.0 for Intel X86 Linux

User input:
--------------------------------------------------------------

$comment
job3 - cvs-adc(2) calculation
$end

$molecule
read
$end

$rem
mem_total 3000
mem_static 1500
sym_ignore true
scf_guess read
method cvs-adc(2)
basis 6-31G*
ee_singlets 20
cc_rest_occ 5                  !only excitations from the lowest N orbitals
unrestricted  true
max_scf_cycles 200
$end
--------------------------------------------------------------

             Standard Nuclear Orientation (Angstroms)
    I     Atom           X                Y                Z
 ----------------------------------------------------------------
    1      C      -0.5053820000     2.6875750000    -0.1692180000
    2      F       0.7501590000     2.6565340000    -0.1575570000
    3      F      -1.0450020000     3.2704640000     0.7104220000
    4      F      -1.6318270000     0.4855960000     0.8644820000
    5      F      -0.9779050000     2.7607230000    -1.3119270000
 ----------------------------------------------------------------

    8    -435.3854789747      5.32E-09 Convergence criterion met
 Total energy in the final basis set = -435.3854789747
  Term symbol:  2 (-) A                                     R^2 =  1.28141e-13
  Excitation energy:                                             294.468336 eV
  Term symbol:  3 (-) A                                     R^2 =  1.28776e-13
  Excitation energy:                                             296.426876 eV
  Term symbol:  4 (-) A                                     R^2 =  2.33283e-13
  Excitation energy:                                             303.633665 eV
  Term symbol:  5 (-) A                                     R^2 =  1.07480e-13
  Excitation energy:                                             304.148064 eV
  Term symbol:  6 (-) A                                     R^2 =  1.74031e-13
  Excitation energy:                                             305.563184 eV
  Term symbol:  7 (-) A                                     R^2 =  4.44122e-14
  Excitation energy:                                             306.047891 eV
  Term symbol:  8 (-) A                                     R^2 =  7.03708e-14
  Excitation energy:                                             306.191145 eV
  Term symbol:  9 (-) A                                     R^2 =  5.54650e-14
  Excitation energy:                                             307.989156 eV
  Term symbol:  10 (-) A                                    R^2 =  1.30854e-13
  Excitation energy:                                             313.016354 eV
  Excited state 10 (A)                                             [converged]
  Term symbol:  11 (-) A                                    R^2 =  1.57030e-13
  Excitation energy:                                             314.112741 eV
  Excited state 11 (A)                                             [converged]
  Term symbol:  12 (-) A                                    R^2 =  1.87731e-13
  Excitation energy:                                             314.271486 eV
  Excited state 12 (A)                                             [converged]
  Term symbol:  13 (-) A                                    R^2 =  5.78354e-14
  Excitation energy:                                             314.382771 eV
  Excited state 13 (A)                                             [converged]
  Term symbol:  14 (-) A                                    R^2 =  1.60147e-13
  Excitation energy:                                             314.776376 eV
  Excited state 14 (A)                                             [converged]
  Term symbol:  15 (-) A                                    R^2 =  2.94604e-13
  Excitation energy:                                             314.900676 eV
  Excited state 15 (A)                                             [converged]
  Term symbol:  16 (-) A                                    R^2 =  6.91833e-13
  Excitation energy:                                             315.935430 eV
  Excited state 16 (A)                                             [converged]
  Term symbol:  17 (-) A                                    R^2 =  1.04660e-12
  Excitation energy:                                             316.999373 eV
  Excited state 17 (A)                                             [converged]
  Term symbol:  18 (-) A                                    R^2 =  9.67833e-07
  Excitation energy:                                             328.786448 eV
  Excited state 18 (A)                                             [converged]
  Term symbol:  19 (-) A                                    R^2 =  1.29343e-08
  Excitation energy:                                             328.825170 eV
  Excited state 19 (A)                                         [not converged]
  Term symbol:  20 (-) A                                    R^2 =  2.80893e-05
  Excitation energy:                                             331.443032 eV
  Excited state 20 (A)                                         [not converged]
  Term symbol:  21 (-) A                                    R^2 =  2.65609e-05
  Excitation energy:                                             331.622683 eV

                    Orbital Energies (a.u.)
 --------------------------------------------------------------

 Alpha MOs
 -- Occupied --
-26.531 -26.517 -26.514 -26.062 -11.730  -1.956  -1.853  -1.823
 -1.293  -1.113  -1.027  -1.021  -0.967  -0.865  -0.854  -0.832
 -0.822  -0.802  -0.407  -0.407  -0.363

 Beta MOs
 -- Occupied --
-26.531 -26.517 -26.514 -26.062 -11.730  -1.956  -1.853  -1.823
 -1.293  -1.113  -1.027  -1.021  -0.967  -0.865  -0.854  -0.832
 -0.822  -0.802  -0.407  -0.407  -0.363

          Ground-State Mulliken Net Atomic Charges

     Atom                 Charge (a.u.)    Spin (a.u.)
  --------------------------------------------------------
      1 C                     1.100590       0.000000
      2 F                    -0.178209       0.000000
      3 F                    -0.071489       0.000000
      4 F                    -0.697543       0.000000
      5 F                    -0.153350       0.000000
  --------------------------------------------------------
  Sum of atomic charges =     0.000000

                    Cartesian Multipole Moments
 -----------------------------------------------------------------
    Charge (ESU x 10^10)
                 0.0000
    Dipole Moment (Debye)
         X       3.4894      Y       7.2883      Z      -3.1764
       Tot       8.6824
    Quadrupole Moments (Debye-Ang)
        XX     -30.8946     XY      -2.2883     YY       0.8429
        XZ       4.6225     YZ      -2.4307     ZZ     -25.4092

 Total job time:  2060.78s(wall), 3323.46s(cpu)
        *  Thank you very much for using Q-Chem.  Have a nice day.  *
