 Q-Chem 4.3, Q-Chem, Inc., Pleasanton, CA (2015)
 Q-Chem 4.3.0 for Intel X86 Linux

User input:
--------------------------------------------------------------
$comment
XAS calculation for the 2b valence excited for water using cvs-adc(2)-x + 6-311+G* basis set
job 1 - determination of HF orbitals
$end

$molecule
0 1
6  -0.438349  3.020429  -0.236251
9  0.727682  2.470743  -0.076063
9  -1.13593  3.099148  0.792734
9  -1.475677  0.886261  0.698739
9  -1.088151  2.557376  -1.262781
$end

$rem
jobtype      sp
sym_ignore true
exchange     hf
basis        6-31G*
unrestricted true
$end

--------------------------------------------------------------

   15    -435.3204744122      3.54E-06 Convergence criterion met
 Total energy in the final basis set = -435.3204744122

                    Orbital Energies (a.u.)
 --------------------------------------------------------------

 Alpha MOs
 -- Occupied --
-26.526 -26.508 -26.501 -26.015 -11.720  -1.896  -1.803  -1.783
 -1.265  -1.088  -0.980  -0.976  -0.921  -0.828  -0.824  -0.800
 -0.792  -0.785  -0.375  -0.375  -0.337

 Beta MOs
 -- Occupied --
-26.526 -26.508 -26.501 -26.015 -11.720  -1.896  -1.803  -1.783
 -1.265  -1.088  -0.980  -0.976  -0.921  -0.828  -0.824  -0.800
 -0.792  -0.785  -0.375  -0.375  -0.337

          Ground-State Mulliken Net Atomic Charges

     Atom                 Charge (a.u.)    Spin (a.u.)
  --------------------------------------------------------
      1 C                     1.198975       0.000000
      2 F                    -0.184535       0.000000
      3 F                    -0.063955       0.000000
      4 F                    -0.778962       0.000000
      5 F                    -0.171524       0.000000
  --------------------------------------------------------
  Sum of atomic charges =     0.000000

                    Cartesian Multipole Moments
 -----------------------------------------------------------------
    Charge (ESU x 10^10)
                 0.0000
    Dipole Moment (Debye)
         X       3.5611      Y       8.0163      Z      -3.1232
       Tot       9.3111
    Quadrupole Moments (Debye-Ang)
        XX     -30.1551     XY      -0.5410     YY       9.5389
        XZ       3.7248     YZ      -4.3050     ZZ     -24.6150

 Total job time:  4.06s(wall), 17.84s(cpu)
        *  Thank you very much for using Q-Chem.  Have a nice day.  *
 Q-Chem 4.3, Q-Chem, Inc., Pleasanton, CA (2015)
 Q-Chem 4.3.0 for Intel X86 Linux

User input:
--------------------------------------------------------------

$comment
job3 - cvs-adc(2) calculation
$end

$molecule
read
$end

$rem
mem_total 3000
mem_static 1500
sym_ignore true
scf_guess read
method cvs-adc(2)
basis 6-31G*
ee_singlets 20
cc_rest_occ 5                  !only excitations from the lowest N orbitals
unrestricted  true
max_scf_cycles 200
$end
--------------------------------------------------------------

             Standard Nuclear Orientation (Angstroms)
    I     Atom           X                Y                Z
 ----------------------------------------------------------------
    1      C      -0.4383490000     3.0204290000    -0.2362510000
    2      F       0.7276820000     2.4707430000    -0.0760630000
    3      F      -1.1359300000     3.0991480000     0.7927340000
    4      F      -1.4756770000     0.8862610000     0.6987390000
    5      F      -1.0881510000     2.5573760000    -1.2627810000
 ----------------------------------------------------------------

   11    -435.3204745329      3.92E-09 Convergence criterion met
 Total energy in the final basis set = -435.3204745329
