 Q-Chem 4.3, Q-Chem, Inc., Pleasanton, CA (2015)
 Q-Chem 4.3.0 for Intel X86 Linux

User input:
--------------------------------------------------------------
$comment
XAS calculation for the 2b valence excited for water using cvs-adc(2)-x + 6-311+G* basis set
job 1 - determination of HF orbitals
$end

$molecule
0 1
6  -0.333413  3.155133  -0.327544
9  0.830756  2.772074  -0.223773
9  -0.993984  3.275783  0.674395
9  -1.93222  -0.007713  1.131433
9  -0.914719  2.833908  -1.3769
$end

$rem
jobtype      sp
sym_ignore true
exchange     hf
basis        6-31G*
unrestricted true
$end

--------------------------------------------------------------

   15    -435.2800388822      5.08E-06 Convergence criterion met
 Total energy in the final basis set = -435.2800388822
 Total job time:  3.73s(wall), 16.28s(cpu)
        *  Thank you very much for using Q-Chem.  Have a nice day.  *
 Q-Chem 4.3, Q-Chem, Inc., Pleasanton, CA (2015)
 Q-Chem 4.3.0 for Intel X86 Linux

User input:
--------------------------------------------------------------

$comment
job3 - cvs-adc(2) calculation
$end

$molecule
read
$end

$rem
mem_total 3000
mem_static 1500
sym_ignore true
scf_guess read
method cvs-adc(2)
basis 6-31G*
ee_singlets 20
cc_rest_occ 5                  !only excitations from the lowest N orbitals
unrestricted  true
max_scf_cycles 200
$end
--------------------------------------------------------------

             Standard Nuclear Orientation (Angstroms)
    I     Atom           X                Y                Z
 ----------------------------------------------------------------
    1      C      -0.3334130000     3.1551330000    -0.3275440000
    2      F       0.8307560000     2.7720740000    -0.2237730000
    3      F      -0.9939840000     3.2757830000     0.6743950000
    4      F      -1.9322200000    -0.0077130000     1.1314330000
    5      F      -0.9147190000     2.8339080000    -1.3769000000
 ----------------------------------------------------------------

   11    -435.2800376088      2.97E-09 Convergence criterion met
 Total energy in the final basis set = -435.2800376088
  Term symbol:  2 (-) A                                     R^2 =  5.82689e-13
  Excitation energy:                                             293.626435 eV
  Term symbol:  3 (-) A                                     R^2 =  8.36144e-13
  Excitation energy:                                             295.489908 eV
  Term symbol:  4 (-) A                                     R^2 =  2.08199e-13
  Excitation energy:                                             303.823696 eV
  Term symbol:  5 (-) A                                     R^2 =  1.04193e-13
  Excitation energy:                                             304.666747 eV
  Term symbol:  6 (-) A                                     R^2 =  3.00732e-13
  Excitation energy:                                             305.599081 eV
  Term symbol:  7 (-) A                                     R^2 =  4.05319e-13
  Excitation energy:                                             305.651452 eV
  Term symbol:  8 (-) A                                     R^2 =  2.58166e-13
  Excitation energy:                                             306.769942 eV
  Term symbol:  9 (-) A                                     R^2 =  9.97809e-13
  Excitation energy:                                             307.703452 eV
  Term symbol:  10 (-) A                                    R^2 =  1.62328e-12
  Excitation energy:                                             312.953390 eV
  Excited state 10 (A)                                             [converged]
  Term symbol:  11 (-) A                                    R^2 =  5.60937e-12
  Excitation energy:                                             314.261370 eV
  Excited state 11 (A)                                             [converged]
  Term symbol:  12 (-) A                                    R^2 =  3.08095e-13
  Excitation energy:                                             314.599645 eV
  Excited state 12 (A)                                             [converged]
  Term symbol:  13 (-) A                                    R^2 =  3.03459e-13
  Excitation energy:                                             314.633950 eV
  Excited state 13 (A)                                             [converged]
  Term symbol:  14 (-) A                                    R^2 =  1.22135e-13
  Excitation energy:                                             315.038493 eV
  Excited state 14 (A)                                             [converged]
  Term symbol:  15 (-) A                                    R^2 =  2.34224e-13
  Excitation energy:                                             315.111698 eV
  Excited state 15 (A)                                             [converged]
  Term symbol:  16 (-) A                                    R^2 =  7.93427e-13
  Excitation energy:                                             315.190048 eV
  Excited state 16 (A)                                             [converged]
  Term symbol:  17 (-) A                                    R^2 =  8.71791e-13
  Excitation energy:                                             316.186363 eV
  Excited state 17 (A)                                         [not converged]
  Term symbol:  18 (-) A                                    R^2 =  4.72294e-03
  Excitation energy:                                             321.353949 eV
  Excited state 18 (A)                                         [not converged]
  Term symbol:  19 (-) A                                    R^2 =  3.43057e-03
  Excitation energy:                                             321.354072 eV
  Excited state 19 (A)                                         [not converged]
  Term symbol:  20 (-) A                                    R^2 =  2.33007e-06
  Excitation energy:                                             321.382942 eV
  Excited state 20 (A)                                             [converged]
  Term symbol:  21 (-) A                                    R^2 =  3.87558e-08
  Excitation energy:                                             321.383086 eV

                    Orbital Energies (a.u.)
 --------------------------------------------------------------

 Alpha MOs
 -- Occupied --
-26.615 -26.612 -26.604 -25.842 -11.820  -2.033  -1.931  -1.914
 -1.189  -1.111  -1.104  -1.101  -1.048  -0.938  -0.931  -0.907
 -0.901  -0.884  -0.222  -0.221  -0.221

 Beta MOs
 -- Occupied --
-26.615 -26.612 -26.604 -25.842 -11.820  -2.033  -1.931  -1.914
 -1.189  -1.111  -1.104  -1.101  -1.048  -0.938  -0.931  -0.907
 -0.901  -0.884  -0.222  -0.221  -0.221

          Ground-State Mulliken Net Atomic Charges

     Atom                 Charge (a.u.)    Spin (a.u.)
  --------------------------------------------------------
      1 C                     1.235440       0.000000
      2 F                    -0.099099       0.000000
      3 F                    -0.040089       0.000000
      4 F                    -0.991052       0.000000
      5 F                    -0.105200       0.000000
  --------------------------------------------------------
  Sum of atomic charges =     0.000000

                    Cartesian Multipole Moments
 -----------------------------------------------------------------
    Charge (ESU x 10^10)
                 0.0000
    Dipole Moment (Debye)
         X       7.3980      Y      15.0292      Z      -6.6560
       Tot      18.0252
    Quadrupole Moments (Debye-Ang)
        XX     -39.2441     XY      -5.3267     YY      26.0428
        XZ      10.5891     YZ      -4.3504     ZZ     -27.8448

 Total job time:  2009.58s(wall), 3290.00s(cpu)
        *  Thank you very much for using Q-Chem.  Have a nice day.  *
