 Q-Chem 4.3, Q-Chem, Inc., Pleasanton, CA (2015)
 Q-Chem 4.3.0 for Intel X86 Linux

User input:
--------------------------------------------------------------
$comment
XAS calculation for the 2b valence excited for water using cvs-adc(2)-x + 6-311+G* basis set
job 1 - determination of HF orbitals
$end

$molecule
0 1
6  -0.556187  2.699763  -0.108813
9  0.696468  2.613492  -0.113938
9  -1.038113  3.511552  0.674938
9  -1.515639  0.207337  0.850181
9  -1.028573  2.845433  -1.343587
$end

$rem
jobtype      sp
sym_ignore true
exchange     hf
basis        6-31G*
unrestricted true
$end

--------------------------------------------------------------

   12    -435.3519565104      7.51E-06 Convergence criterion met
 Total energy in the final basis set = -435.3519565104
 Total job time:  3.20s(wall), 14.34s(cpu)
        *  Thank you very much for using Q-Chem.  Have a nice day.  *
 Q-Chem 4.3, Q-Chem, Inc., Pleasanton, CA (2015)
 Q-Chem 4.3.0 for Intel X86 Linux

User input:
--------------------------------------------------------------

$comment
job3 - cvs-adc(2) calculation
$end

$molecule
read
$end

$rem
mem_total 3000
mem_static 1500
sym_ignore true
scf_guess read
method cvs-adc(2)
basis 6-31G*
ee_singlets 20
cc_rest_occ 5                  !only excitations from the lowest N orbitals
unrestricted  true
max_scf_cycles 200
$end
--------------------------------------------------------------

             Standard Nuclear Orientation (Angstroms)
    I     Atom           X                Y                Z
 ----------------------------------------------------------------
    1      C      -0.5561870000     2.6997630000    -0.1088130000
    2      F       0.6964680000     2.6134920000    -0.1139380000
    3      F      -1.0381130000     3.5115520000     0.6749380000
    4      F      -1.5156390000     0.2073370000     0.8501810000
    5      F      -1.0285730000     2.8454330000    -1.3435870000
 ----------------------------------------------------------------

    9    -435.3519570253      2.72E-09 Convergence criterion met
 Total energy in the final basis set = -435.3519570253
  Term symbol:  2 (-) A                                     R^2 =  3.21178e-14
  Excitation energy:                                             294.067470 eV
  Term symbol:  3 (-) A                                     R^2 =  4.55570e-14
  Excitation energy:                                             295.878966 eV
  Term symbol:  4 (-) A                                     R^2 =  4.99178e-14
  Excitation energy:                                             301.645545 eV
  Term symbol:  5 (-) A                                     R^2 =  3.93790e-14
  Excitation energy:                                             303.518880 eV
  Term symbol:  6 (-) A                                     R^2 =  9.23578e-14
  Excitation energy:                                             303.733309 eV
  Term symbol:  7 (-) A                                     R^2 =  3.74530e-14
  Excitation energy:                                             304.276993 eV
  Term symbol:  8 (-) A                                     R^2 =  3.26973e-14
  Excitation energy:                                             305.524097 eV
  Term symbol:  9 (-) A                                     R^2 =  2.41529e-14
  Excitation energy:                                             306.175611 eV
  Term symbol:  10 (-) A                                    R^2 =  6.49065e-14
  Excitation energy:                                             313.255877 eV
  Excited state 10 (A)                                             [converged]
  Term symbol:  11 (-) A                                    R^2 =  5.27395e-14
  Excitation energy:                                             313.728887 eV
  Excited state 11 (A)                                             [converged]
  Term symbol:  12 (-) A                                    R^2 =  4.91414e-14
  Excitation energy:                                             313.841352 eV
  Excited state 12 (A)                                             [converged]
  Term symbol:  13 (-) A                                    R^2 =  5.51569e-14
  Excitation energy:                                             314.020145 eV
  Excited state 13 (A)                                             [converged]
  Term symbol:  14 (-) A                                    R^2 =  8.85176e-14
  Excitation energy:                                             314.145074 eV
  Excited state 14 (A)                                             [converged]
  Term symbol:  15 (-) A                                    R^2 =  1.03885e-13
  Excitation energy:                                             314.216104 eV
  Excited state 15 (A)                                             [converged]
  Term symbol:  16 (-) A                                    R^2 =  9.82838e-14
  Excitation energy:                                             314.419703 eV
  Excited state 16 (A)                                             [converged]
  Term symbol:  17 (-) A                                    R^2 =  1.20022e-13
  Excitation energy:                                             315.359307 eV
  Excited state 17 (A)                                             [converged]
  Term symbol:  18 (-) A                                    R^2 =  8.62566e-13
  Excitation energy:                                             325.877977 eV
  Excited state 18 (A)                                             [converged]
  Term symbol:  19 (-) A                                    R^2 =  3.49654e-13
  Excitation energy:                                             325.965799 eV
  Excited state 19 (A)                                         [not converged]
  Term symbol:  20 (-) A                                    R^2 =  2.78763e-04
  Excitation energy:                                             331.115552 eV
  Excited state 20 (A)                                         [not converged]
  Term symbol:  21 (-) A                                    R^2 =  5.01799e-04
  Excitation energy:                                             331.255344 eV

                    Orbital Energies (a.u.)
 --------------------------------------------------------------

 Alpha MOs
 -- Occupied --
-26.522 -26.510 -26.480 -26.118 -11.723  -1.918  -1.825  -1.769
 -1.334  -1.097  -0.995  -0.982  -0.937  -0.845  -0.827  -0.816
 -0.790  -0.780  -0.452  -0.452  -0.376

 Beta MOs
 -- Occupied --
-26.522 -26.510 -26.480 -26.118 -11.723  -1.918  -1.825  -1.769
 -1.334  -1.097  -0.995  -0.982  -0.937  -0.845  -0.827  -0.816
 -0.790  -0.780  -0.452  -0.452  -0.376

          Ground-State Mulliken Net Atomic Charges

     Atom                 Charge (a.u.)    Spin (a.u.)
  --------------------------------------------------------
      1 C                     1.131540       0.000000
      2 F                    -0.167914       0.000000
      3 F                    -0.132478       0.000000
      4 F                    -0.589156       0.000000
      5 F                    -0.241992       0.000000
  --------------------------------------------------------
  Sum of atomic charges =     0.000000

                    Cartesian Multipole Moments
 -----------------------------------------------------------------
    Charge (ESU x 10^10)
                 0.0000
    Dipole Moment (Debye)
         X       2.7000      Y       6.8523      Z      -2.1906
       Tot       7.6839
    Quadrupole Moments (Debye-Ang)
        XX     -28.9602     XY      -2.8591     YY      -2.8036
        XZ       3.1754     YZ      -0.2278     ZZ     -25.7667

 Total job time:  1904.18s(wall), 3152.97s(cpu)
        *  Thank you very much for using Q-Chem.  Have a nice day.  *
