 Q-Chem 4.3, Q-Chem, Inc., Pleasanton, CA (2015)
 Q-Chem 4.3.0 for Intel X86 Linux

User input:
--------------------------------------------------------------
$comment
XAS calculation for the 2b valence excited for water using cvs-adc(2)-x + 6-311+G* basis set
job 1 - determination of HF orbitals
$end

$molecule
0 1
6  -0.55479  2.820427  -0.191872
9  0.682821  2.372773  -0.024115
9  -1.146596  3.152811  0.800357
9  -1.31285  1.070614  0.563794
9  -1.117857  2.526008  -1.216564
$end

$rem
jobtype      sp
sym_ignore true
exchange     hf
basis        6-31G*
unrestricted true
$end

--------------------------------------------------------------

    9    -435.4080769471      5.67E-06 Convergence criterion met
 Total energy in the final basis set = -435.4080769471
 Total job time:  2.62s(wall), 10.84s(cpu)
        *  Thank you very much for using Q-Chem.  Have a nice day.  *
 Q-Chem 4.3, Q-Chem, Inc., Pleasanton, CA (2015)
 Q-Chem 4.3.0 for Intel X86 Linux

User input:
--------------------------------------------------------------

$comment
job3 - cvs-adc(2) calculation
$end

$molecule
read
$end

$rem
mem_total 3000
mem_static 1500
sym_ignore true
scf_guess read
method cvs-adc(2)
basis 6-31G*
ee_singlets 20
cc_rest_occ 5                  !only excitations from the lowest N orbitals
unrestricted  true
max_scf_cycles 200
$end
--------------------------------------------------------------

             Standard Nuclear Orientation (Angstroms)
    I     Atom           X                Y                Z
 ----------------------------------------------------------------
    1      C      -0.5547900000     2.8204270000    -0.1918720000
    2      F       0.6828210000     2.3727730000    -0.0241150000
    3      F      -1.1465960000     3.1528110000     0.8003570000
    4      F      -1.3128500000     1.0706140000     0.5637940000
    5      F      -1.1178570000     2.5260080000    -1.2165640000
 ----------------------------------------------------------------

    6    -435.4080771442      5.90E-09 Convergence criterion met
 Total energy in the final basis set = -435.4080771442
  Term symbol:  2 (-) A                                     R^2 =  2.72718e-13
  Excitation energy:                                             294.130315 eV
  Term symbol:  3 (-) A                                     R^2 =  7.79735e-14
  Excitation energy:                                             295.956020 eV
  Term symbol:  4 (-) A                                     R^2 =  2.68071e-13
  Excitation energy:                                             302.050177 eV
  Term symbol:  5 (-) A                                     R^2 =  7.27616e-13
  Excitation energy:                                             304.298653 eV
  Term symbol:  6 (-) A                                     R^2 =  5.13382e-13
  Excitation energy:                                             304.826558 eV
  Term symbol:  7 (-) A                                     R^2 =  1.24130e-12
  Excitation energy:                                             306.193550 eV
  Term symbol:  8 (-) A                                     R^2 =  1.76608e-13
  Excitation energy:                                             306.724555 eV
  Term symbol:  9 (-) A                                     R^2 =  2.26384e-13
  Excitation energy:                                             308.234606 eV
  Term symbol:  10 (-) A                                    R^2 =  1.08489e-12
  Excitation energy:                                             312.056038 eV
  Excited state 10 (A)                                             [converged]
  Term symbol:  11 (-) A                                    R^2 =  5.55048e-13
  Excitation energy:                                             313.558601 eV
  Excited state 11 (A)                                             [converged]
  Term symbol:  12 (-) A                                    R^2 =  2.16398e-13
  Excitation energy:                                             314.377486 eV
  Excited state 12 (A)                                             [converged]
  Term symbol:  13 (-) A                                    R^2 =  5.66658e-13
  Excitation energy:                                             314.525109 eV
  Excited state 13 (A)                                             [converged]
  Term symbol:  14 (-) A                                    R^2 =  6.26114e-13
  Excitation energy:                                             314.789314 eV
  Excited state 14 (A)                                             [converged]
  Term symbol:  15 (-) A                                    R^2 =  2.56331e-13
  Excitation energy:                                             315.071060 eV
  Excited state 15 (A)                                             [converged]
  Term symbol:  16 (-) A                                    R^2 =  1.29500e-11
  Excitation energy:                                             319.952430 eV
  Excited state 16 (A)                                             [converged]
  Term symbol:  17 (-) A                                    R^2 =  1.16247e-12
  Excitation energy:                                             320.489580 eV
  Excited state 17 (A)                                         [not converged]
  Term symbol:  18 (-) A                                    R^2 =  1.14722e-02
  Excitation energy:                                             329.806050 eV
  Excited state 18 (A)                                         [not converged]
  Term symbol:  19 (-) A                                    R^2 =  3.51617e-03
  Excitation energy:                                             329.808075 eV
  Excited state 19 (A)                                         [not converged]
  Term symbol:  20 (-) A                                    R^2 =  8.00442e-06
  Excitation energy:                                             329.936167 eV
  Excited state 20 (A)                                         [not converged]
  Term symbol:  21 (-) A                                    R^2 =  2.45545e-02
  Excitation energy:                                             329.945070 eV

                    Orbital Energies (a.u.)
 --------------------------------------------------------------

 Alpha MOs
 -- Occupied --
-26.506 -26.492 -26.462 -26.037 -11.706  -1.912  -1.831  -1.755
 -1.307  -1.078  -0.993  -0.977  -0.925  -0.824  -0.811  -0.806
 -0.778  -0.765  -0.405  -0.402  -0.397

 Beta MOs
 -- Occupied --
-26.506 -26.492 -26.462 -26.037 -11.706  -1.912  -1.831  -1.755
 -1.307  -1.078  -0.993  -0.977  -0.925  -0.824  -0.811  -0.806
 -0.778  -0.765  -0.405  -0.402  -0.397

          Ground-State Mulliken Net Atomic Charges

     Atom                 Charge (a.u.)    Spin (a.u.)
  --------------------------------------------------------
      1 C                     1.217837       0.000000
      2 F                    -0.243826       0.000000
      3 F                    -0.082040       0.000000
      4 F                    -0.784768       0.000000
      5 F                    -0.107203       0.000000
  --------------------------------------------------------
  Sum of atomic charges =     0.000000

                    Cartesian Multipole Moments
 -----------------------------------------------------------------
    Charge (ESU x 10^10)
                 0.0000
    Dipole Moment (Debye)
         X       2.2032      Y       6.6372      Z      -2.7852
       Tot       7.5276
    Quadrupole Moments (Debye-Ang)
        XX     -27.9151     XY      -1.8731     YY       3.8784
        XZ       3.0066     YZ      -4.5713     ZZ     -23.7566

 Total job time:  1933.49s(wall), 3169.94s(cpu)
        *  Thank you very much for using Q-Chem.  Have a nice day.  *
