 Q-Chem 4.3, Q-Chem, Inc., Pleasanton, CA (2015)
 Q-Chem 4.3.0 for Intel X86 Linux

User input:
--------------------------------------------------------------
$comment
XAS calculation for the 2b valence excited for water using cvs-adc(2)-x + 6-311+G* basis set
job 1 - determination of HF orbitals
$end

$molecule
0 1
6  -0.529102  2.604969  -0.161936
9  0.617246  2.366943  -0.01332
9  -1.154881  3.210599  0.810514
9  -1.241157  1.135446  0.505338
9  -1.126147  2.53557  -1.200683
$end

$rem
jobtype      sp
sym_ignore true
exchange     hf
basis        6-31G*
unrestricted true
$end

--------------------------------------------------------------

    8    -435.5019184672      9.22E-06 Convergence criterion met
 Total energy in the final basis set = -435.5019184672
 Total job time:  2.25s(wall), 9.26s(cpu)
        *  Thank you very much for using Q-Chem.  Have a nice day.  *
 Q-Chem 4.3, Q-Chem, Inc., Pleasanton, CA (2015)
 Q-Chem 4.3.0 for Intel X86 Linux

User input:
--------------------------------------------------------------

$comment
job3 - cvs-adc(2) calculation
$end

$molecule
read
$end

$rem
mem_total 3000
mem_static 1500
sym_ignore true
scf_guess read
method cvs-adc(2)
basis 6-31G*
ee_singlets 20
cc_rest_occ 5                  !only excitations from the lowest N orbitals
unrestricted  true
max_scf_cycles 200
$end
--------------------------------------------------------------

             Standard Nuclear Orientation (Angstroms)
    I     Atom           X                Y                Z
 ----------------------------------------------------------------
    1      C      -0.5291020000     2.6049690000    -0.1619360000
    2      F       0.6172460000     2.3669430000    -0.0133200000
    3      F      -1.1548810000     3.2105990000     0.8105140000
    4      F      -1.2411570000     1.1354460000     0.5053380000
    5      F      -1.1261470000     2.5355700000    -1.2006830000
 ----------------------------------------------------------------

    7    -435.5019186084      3.04E-09 Convergence criterion met
 Total energy in the final basis set = -435.5019186084
  Term symbol:  2 (-) A                                     R^2 =  1.03665e-07
  Excitation energy:                                             296.073630 eV
  Term symbol:  3 (-) A                                     R^2 =  3.65933e-08
  Excitation energy:                                             297.991457 eV
  Term symbol:  4 (-) A                                     R^2 =  3.04337e-07
  Excitation energy:                                             302.711341 eV
  Term symbol:  5 (-) A                                     R^2 =  2.33853e-07
  Excitation energy:                                             304.390694 eV
  Term symbol:  6 (-) A                                     R^2 =  3.84224e-07
  Excitation energy:                                             305.018471 eV
  Term symbol:  7 (-) A                                     R^2 =  1.32231e-07
  Excitation energy:                                             306.175616 eV
  Term symbol:  8 (-) A                                     R^2 =  1.70546e-09
  Excitation energy:                                             306.827816 eV
  Term symbol:  9 (-) A                                     R^2 =  2.03938e-08
  Excitation energy:                                             309.010853 eV
  Term symbol:  10 (-) A                                    R^2 =  1.12728e-07
  Excitation energy:                                             311.790097 eV
  Excited state 10 (A)                                             [converged]
  Term symbol:  11 (-) A                                    R^2 =  2.97793e-09
  Excitation energy:                                             313.283372 eV
  Excited state 11 (A)                                             [converged]
  Term symbol:  12 (-) A                                    R^2 =  1.60670e-07
  Excitation energy:                                             313.932889 eV
  Excited state 12 (A)                                             [converged]
  Term symbol:  13 (-) A                                    R^2 =  3.08648e-09
  Excitation energy:                                             314.337386 eV
  Excited state 13 (A)                                             [converged]
  Term symbol:  14 (-) A                                    R^2 =  1.74078e-08
  Excitation energy:                                             314.547672 eV
  Excited state 14 (A)                                             [converged]
  Term symbol:  15 (-) A                                    R^2 =  2.47989e-08
  Excitation energy:                                             315.021143 eV
  Excited state 15 (A)                                             [converged]
  Term symbol:  16 (-) A                                    R^2 =  1.96743e-08
  Excitation energy:                                             317.939286 eV
  Excited state 16 (A)                                             [converged]
  Term symbol:  17 (-) A                                    R^2 =  2.79886e-08
  Excitation energy:                                             318.361316 eV
  Excited state 17 (A)                                             [converged]
  Term symbol:  18 (-) A                                    R^2 =  2.91480e-08
  Excitation energy:                                             330.576728 eV
  Excited state 18 (A)                                             [converged]
  Term symbol:  19 (-) A                                    R^2 =  2.18803e-08
  Excitation energy:                                             330.748100 eV
  Excited state 19 (A)                                         [not converged]
  Term symbol:  20 (-) A                                    R^2 =  1.13435e-06
  Excitation energy:                                             331.098643 eV
  Excited state 20 (A)                                         [not converged]
  Term symbol:  21 (-) A                                    R^2 =  1.03041e-06
  Excitation energy:                                             331.222441 eV

                    Orbital Energies (a.u.)
 --------------------------------------------------------------

 Alpha MOs
 -- Occupied --
-26.477 -26.459 -26.397 -26.158 -11.652  -1.898  -1.815  -1.716
 -1.420  -1.055  -0.976  -0.949  -0.913  -0.807  -0.796  -0.780
 -0.743  -0.721  -0.509  -0.506  -0.496

 Beta MOs
 -- Occupied --
-26.477 -26.459 -26.397 -26.158 -11.652  -1.898  -1.815  -1.716
 -1.420  -1.055  -0.976  -0.949  -0.913  -0.807  -0.796  -0.780
 -0.743  -0.721  -0.509  -0.506  -0.496

          Ground-State Mulliken Net Atomic Charges

     Atom                 Charge (a.u.)    Spin (a.u.)
  --------------------------------------------------------
      1 C                     1.205317       0.000000
      2 F                    -0.134123       0.000000
      3 F                    -0.278043       0.000000
      4 F                    -0.634290       0.000000
      5 F                    -0.158861       0.000000
  --------------------------------------------------------
  Sum of atomic charges =     0.000000

                    Cartesian Multipole Moments
 -----------------------------------------------------------------
    Charge (ESU x 10^10)
                 0.0000
    Dipole Moment (Debye)
         X       2.2860      Y       3.5744      Z      -2.1921
       Tot       4.7757
    Quadrupole Moments (Debye-Ang)
        XX     -27.0776     XY       1.7456     YY     -10.0781
        XZ       2.1624     YZ      -4.2645     ZZ     -24.1832

 Total job time:  2150.65s(wall), 3447.08s(cpu)
        *  Thank you very much for using Q-Chem.  Have a nice day.  *
