 Q-Chem 4.3, Q-Chem, Inc., Pleasanton, CA (2015)
 Q-Chem 4.3.0 for Intel X86 Linux

User input:
--------------------------------------------------------------
$comment
XAS calculation for the 2b valence excited for water using cvs-adc(2)-x + 6-311+G* basis set
job 1 - determination of HF orbitals
$end

$molecule
0 1
6  -0.44833  2.995106  -0.217215
9  0.587005  2.395141  -0.030524
9  -1.108365  3.298057  0.741499
9  -1.325744  0.695824  0.64362
9  -1.107541  2.600409  -1.22165
$end

$rem
jobtype      sp
sym_ignore true
exchange     hf
basis        6-31G*
unrestricted true
$end

--------------------------------------------------------------

   12    -435.3449989468      6.55E-06 Convergence criterion met
 Total energy in the final basis set = -435.3449989468
 Total job time:  5.56s(wall), 14.03s(cpu)
        *  Thank you very much for using Q-Chem.  Have a nice day.  *
 Q-Chem 4.3, Q-Chem, Inc., Pleasanton, CA (2015)
 Q-Chem 4.3.0 for Intel X86 Linux

User input:
--------------------------------------------------------------

$comment
job3 - cvs-adc(2) calculation
$end

$molecule
read
$end

$rem
mem_total 3000
mem_static 1500
sym_ignore true
scf_guess read
method cvs-adc(2)
basis 6-31G*
ee_singlets 20
cc_rest_occ 5                  !only excitations from the lowest N orbitals
unrestricted  true
max_scf_cycles 200
$end
--------------------------------------------------------------

             Standard Nuclear Orientation (Angstroms)
    I     Atom           X                Y                Z
 ----------------------------------------------------------------
    1      C      -0.4483300000     2.9951060000    -0.2172150000
    2      F       0.5870050000     2.3951410000    -0.0305240000
    3      F      -1.1083650000     3.2980570000     0.7414990000
    4      F      -1.3257440000     0.6958240000     0.6436200000
    5      F      -1.1075410000     2.6004090000    -1.2216500000
 ----------------------------------------------------------------

    8    -435.3449994453      6.88E-09 Convergence criterion met
 Total energy in the final basis set = -435.3449994453
  Term symbol:  2 (-) A                                     R^2 =  1.35858e-12
  Excitation energy:                                             293.242367 eV
  Term symbol:  3 (-) A                                     R^2 =  1.27825e-12
  Excitation energy:                                             295.049405 eV
  Term symbol:  4 (-) A                                     R^2 =  7.86418e-13
  Excitation energy:                                             303.743286 eV
  Term symbol:  5 (-) A                                     R^2 =  1.60621e-13
  Excitation energy:                                             305.102596 eV
  Term symbol:  6 (-) A                                     R^2 =  5.17426e-13
  Excitation energy:                                             305.538011 eV
  Term symbol:  7 (-) A                                     R^2 =  9.70234e-13
  Excitation energy:                                             305.851598 eV
  Term symbol:  8 (-) A                                     R^2 =  1.31955e-12
  Excitation energy:                                             306.973515 eV
  Term symbol:  9 (-) A                                     R^2 =  1.08679e-12
  Excitation energy:                                             307.524199 eV
  Term symbol:  10 (-) A                                    R^2 =  2.44456e-13
  Excitation energy:                                             312.288659 eV
  Excited state 10 (A)                                             [converged]
  Term symbol:  11 (-) A                                    R^2 =  1.72505e-12
  Excitation energy:                                             313.890309 eV
  Excited state 11 (A)                                             [converged]
  Term symbol:  12 (-) A                                    R^2 =  1.31657e-12
  Excitation energy:                                             313.983363 eV
  Excited state 12 (A)                                             [converged]
  Term symbol:  13 (-) A                                    R^2 =  1.84900e-12
  Excitation energy:                                             314.124213 eV
  Excited state 13 (A)                                             [converged]
  Term symbol:  14 (-) A                                    R^2 =  5.93968e-13
  Excitation energy:                                             314.462787 eV
  Excited state 14 (A)                                             [converged]
  Term symbol:  15 (-) A                                    R^2 =  1.73506e-12
  Excitation energy:                                             314.688186 eV
  Excited state 15 (A)                                             [converged]
  Term symbol:  16 (-) A                                    R^2 =  7.29361e-10
  Excitation energy:                                             318.454144 eV
  Excited state 16 (A)                                             [converged]
  Term symbol:  17 (-) A                                    R^2 =  5.26153e-11
  Excitation energy:                                             319.067261 eV
  Excited state 17 (A)                                         [not converged]
  Term symbol:  18 (-) A                                    R^2 =  8.28277e-01
  Excitation energy:                                             330.925096 eV
  Excited state 18 (A)                                             [converged]
  Term symbol:  19 (-) A                                    R^2 =  1.72179e-07
  Excitation energy:                                             331.938691 eV
  Excited state 19 (A)                                         [not converged]
  Term symbol:  20 (-) A                                    R^2 =  1.25365e-06
  Excitation energy:                                             332.114180 eV
  Excited state 20 (A)                                         [not converged]
  Term symbol:  21 (-) A                                    R^2 =  2.37276e-05
  Excitation energy:                                             332.282439 eV

                    Orbital Energies (a.u.)
 --------------------------------------------------------------

 Alpha MOs
 -- Occupied --
-26.549 -26.545 -26.521 -25.946 -11.748  -1.967  -1.868  -1.827
 -1.208  -1.123  -1.038  -1.030  -0.976  -0.869  -0.861  -0.839
 -0.820  -0.810  -0.316  -0.316  -0.314

 Beta MOs
 -- Occupied --
-26.549 -26.545 -26.521 -25.946 -11.748  -1.967  -1.868  -1.827
 -1.208  -1.123  -1.038  -1.030  -0.976  -0.869  -0.861  -0.839
 -0.820  -0.810  -0.316  -0.316  -0.314

          Ground-State Mulliken Net Atomic Charges

     Atom                 Charge (a.u.)    Spin (a.u.)
  --------------------------------------------------------
      1 C                     1.163060       0.000000
      2 F                    -0.072078       0.000000
      3 F                    -0.058035       0.000000
      4 F                    -0.895530       0.000000
      5 F                    -0.137417       0.000000
  --------------------------------------------------------
  Sum of atomic charges =     0.000000

                    Cartesian Multipole Moments
 -----------------------------------------------------------------
    Charge (ESU x 10^10)
                 0.0000
    Dipole Moment (Debye)
         X       3.8687      Y       9.9653      Z      -3.4520
       Tot      11.2335
    Quadrupole Moments (Debye-Ang)
        XX     -29.2269     XY      -1.2141     YY      15.4146
        XZ       3.6724     YZ      -4.3811     ZZ     -24.2767

 Total job time:  2051.49s(wall), 3326.26s(cpu)
        *  Thank you very much for using Q-Chem.  Have a nice day.  *
