 Q-Chem 4.3, Q-Chem, Inc., Pleasanton, CA (2015)
 Q-Chem 4.3.0 for Intel X86 Linux

User input:
--------------------------------------------------------------
$comment
XAS calculation for the 2b valence excited for water using cvs-adc(2)-x + 6-311+G* basis set
job 1 - determination of HF orbitals
$end

$molecule
0 1
6  -0.603581  2.695118  -0.160354
9  0.646805  2.528363  -0.057991
9  -1.089748  3.569151  0.719133
9  -1.371565  0.285472  0.750601
9  -1.081932  2.815903  -1.298563
$end

$rem
jobtype      sp
sym_ignore true
exchange     hf
basis        6-31G*
unrestricted true
$end

--------------------------------------------------------------

   11    -435.3777625396      7.66E-06 Convergence criterion met
 Total energy in the final basis set = -435.3777625396
 Total job time:  2.97s(wall), 12.04s(cpu)
        *  Thank you very much for using Q-Chem.  Have a nice day.  *
 Q-Chem 4.3, Q-Chem, Inc., Pleasanton, CA (2015)
 Q-Chem 4.3.0 for Intel X86 Linux

User input:
--------------------------------------------------------------

$comment
job3 - cvs-adc(2) calculation
$end

$molecule
read
$end

$rem
mem_total 3000
mem_static 1500
sym_ignore true
scf_guess read
method cvs-adc(2)
basis 6-31G*
ee_singlets 20
cc_rest_occ 5                  !only excitations from the lowest N orbitals
unrestricted  true
max_scf_cycles 200
$end
--------------------------------------------------------------

             Standard Nuclear Orientation (Angstroms)
    I     Atom           X                Y                Z
 ----------------------------------------------------------------
    1      C      -0.6035810000     2.6951180000    -0.1603540000
    2      F       0.6468050000     2.5283630000    -0.0579910000
    3      F      -1.0897480000     3.5691510000     0.7191330000
    4      F      -1.3715650000     0.2854720000     0.7506010000
    5      F      -1.0819320000     2.8159030000    -1.2985630000
 ----------------------------------------------------------------

    8    -435.3777636253      8.48E-09 Convergence criterion met
 Total energy in the final basis set = -435.3777636253
  Term symbol:  2 (-) A                                     R^2 =  2.69849e-14
  Excitation energy:                                             294.261097 eV
  Term symbol:  3 (-) A                                     R^2 =  4.33759e-14
  Excitation energy:                                             296.125973 eV
  Term symbol:  4 (-) A                                     R^2 =  2.19014e-14
  Excitation energy:                                             301.688779 eV
  Term symbol:  5 (-) A                                     R^2 =  3.40523e-14
  Excitation energy:                                             303.143152 eV
  Term symbol:  6 (-) A                                     R^2 =  1.92756e-13
  Excitation energy:                                             303.794287 eV
  Term symbol:  7 (-) A                                     R^2 =  3.66395e-14
  Excitation energy:                                             304.010227 eV
  Term symbol:  8 (-) A                                     R^2 =  3.21667e-13
  Excitation energy:                                             305.092397 eV
  Term symbol:  9 (-) A                                     R^2 =  4.61977e-14
  Excitation energy:                                             306.017164 eV
  Term symbol:  10 (-) A                                    R^2 =  2.48094e-13
  Excitation energy:                                             313.309081 eV
  Excited state 10 (A)                                             [converged]
  Term symbol:  11 (-) A                                    R^2 =  1.96058e-13
  Excitation energy:                                             314.120097 eV
  Excited state 11 (A)                                             [converged]
  Term symbol:  12 (-) A                                    R^2 =  7.32460e-13
  Excitation energy:                                             314.168295 eV
  Excited state 12 (A)                                             [converged]
  Term symbol:  13 (-) A                                    R^2 =  2.90415e-13
  Excitation energy:                                             314.184494 eV
  Excited state 13 (A)                                             [converged]
  Term symbol:  14 (-) A                                    R^2 =  1.50042e-12
  Excitation energy:                                             314.593114 eV
  Excited state 14 (A)                                             [converged]
  Term symbol:  15 (-) A                                    R^2 =  9.09500e-13
  Excitation energy:                                             314.740759 eV
  Excited state 15 (A)                                             [converged]
  Term symbol:  16 (-) A                                    R^2 =  2.67867e-12
  Excitation energy:                                             315.139011 eV
  Excited state 16 (A)                                             [converged]
  Term symbol:  17 (-) A                                    R^2 =  1.20205e-11
  Excitation energy:                                             316.202453 eV
  Excited state 17 (A)                                             [converged]
  Term symbol:  18 (-) A                                    R^2 =  1.15768e-08
  Excitation energy:                                             327.582156 eV
  Excited state 18 (A)                                             [converged]
  Term symbol:  19 (-) A                                    R^2 =  6.43688e-09
  Excitation energy:                                             327.655429 eV
  Excited state 19 (A)                                         [not converged]
  Term symbol:  20 (-) A                                    R^2 =  3.91050e-04
  Excitation energy:                                             331.353229 eV
  Excited state 20 (A)                                         [not converged]
  Term symbol:  21 (-) A                                    R^2 =  3.25529e-04
  Excitation energy:                                             331.486599 eV

                    Orbital Energies (a.u.)
 --------------------------------------------------------------

 Alpha MOs
 -- Occupied --
-26.522 -26.507 -26.483 -26.116 -11.726  -1.905  -1.818  -1.769
 -1.334  -1.093  -0.989  -0.977  -0.929  -0.840  -0.825  -0.814
 -0.792  -0.781  -0.451  -0.451  -0.386

 Beta MOs
 -- Occupied --
-26.522 -26.507 -26.483 -26.116 -11.726  -1.905  -1.818  -1.769
 -1.334  -1.093  -0.989  -0.977  -0.929  -0.840  -0.825  -0.814
 -0.792  -0.781  -0.451  -0.451  -0.386

          Ground-State Mulliken Net Atomic Charges

     Atom                 Charge (a.u.)    Spin (a.u.)
  --------------------------------------------------------
      1 C                     1.157383       0.000000
      2 F                    -0.171662       0.000000
      3 F                    -0.238476       0.000000
      4 F                    -0.600092       0.000000
      5 F                    -0.147153       0.000000
  --------------------------------------------------------
  Sum of atomic charges =     0.000000

                    Cartesian Multipole Moments
 -----------------------------------------------------------------
    Charge (ESU x 10^10)
                 0.0000
    Dipole Moment (Debye)
         X       2.2102      Y       6.5534      Z      -2.8931
       Tot       7.4968
    Quadrupole Moments (Debye-Ang)
        XX     -27.7376     XY      -2.8394     YY      -3.9340
        XZ       3.4007     YZ      -3.1264     ZZ     -24.8553

 Total job time:  1941.86s(wall), 3217.99s(cpu)
        *  Thank you very much for using Q-Chem.  Have a nice day.  *
