 Q-Chem 4.3, Q-Chem, Inc., Pleasanton, CA (2015)
 Q-Chem 4.3.0 for Intel X86 Linux

User input:
--------------------------------------------------------------
$comment
XAS calculation for the 2b valence excited for water using cvs-adc(2)-x + 6-311+G* basis set
job 1 - determination of HF orbitals
$end

$molecule
0 1
6  -0.597173  2.675351  -0.161645
9  0.649485  2.541422  -0.062861
9  -1.08773  3.584904  0.718527
9  -1.382929  0.255461  0.763111
9  -1.077872  2.829331  -1.304963
$end

$rem
jobtype      sp
sym_ignore true
exchange     hf
basis        6-31G*
unrestricted true
$end

--------------------------------------------------------------

   12    -435.3677294032      4.25E-06 Convergence criterion met
 Total energy in the final basis set = -435.3677294032
 Total job time:  3.22s(wall), 13.61s(cpu)
        *  Thank you very much for using Q-Chem.  Have a nice day.  *
 Q-Chem 4.3, Q-Chem, Inc., Pleasanton, CA (2015)
 Q-Chem 4.3.0 for Intel X86 Linux

User input:
--------------------------------------------------------------

$comment
job3 - cvs-adc(2) calculation
$end

$molecule
read
$end

$rem
mem_total 3000
mem_static 1500
sym_ignore true
scf_guess read
method cvs-adc(2)
basis 6-31G*
ee_singlets 20
cc_rest_occ 5                  !only excitations from the lowest N orbitals
unrestricted  true
max_scf_cycles 200
$end
--------------------------------------------------------------

             Standard Nuclear Orientation (Angstroms)
    I     Atom           X                Y                Z
 ----------------------------------------------------------------
    1      C      -0.5971730000     2.6753510000    -0.1616450000
    2      F       0.6494850000     2.5414220000    -0.0628610000
    3      F      -1.0877300000     3.5849040000     0.7185270000
    4      F      -1.3829290000     0.2554610000     0.7631110000
    5      F      -1.0778720000     2.8293310000    -1.3049630000
 ----------------------------------------------------------------

    8    -435.3677298026      6.46E-09 Convergence criterion met
 Total energy in the final basis set = -435.3677298026
  Term symbol:  2 (-) A                                     R^2 =  1.74403e-13
  Excitation energy:                                             294.163263 eV
  Term symbol:  3 (-) A                                     R^2 =  2.83088e-13
  Excitation energy:                                             295.990951 eV
  Term symbol:  4 (-) A                                     R^2 =  1.72269e-13
  Excitation energy:                                             301.103403 eV
  Term symbol:  5 (-) A                                     R^2 =  3.28017e-13
  Excitation energy:                                             303.197903 eV
  Term symbol:  6 (-) A                                     R^2 =  1.48554e-13
  Excitation energy:                                             303.230834 eV
  Term symbol:  7 (-) A                                     R^2 =  8.30701e-14
  Excitation energy:                                             303.773728 eV
  Term symbol:  8 (-) A                                     R^2 =  1.68246e-13
  Excitation energy:                                             305.165396 eV
  Term symbol:  9 (-) A                                     R^2 =  7.95246e-14
  Excitation energy:                                             305.786448 eV
  Term symbol:  10 (-) A                                    R^2 =  3.90922e-13
  Excitation energy:                                             313.345387 eV
  Excited state 10 (A)                                             [converged]
  Term symbol:  11 (-) A                                    R^2 =  2.22757e-13
  Excitation energy:                                             314.003471 eV
  Excited state 11 (A)                                             [converged]
  Term symbol:  12 (-) A                                    R^2 =  4.33730e-13
  Excitation energy:                                             314.028185 eV
  Excited state 12 (A)                                             [converged]
  Term symbol:  13 (-) A                                    R^2 =  1.08102e-13
  Excitation energy:                                             314.143443 eV
  Excited state 13 (A)                                             [converged]
  Term symbol:  14 (-) A                                    R^2 =  1.88721e-13
  Excitation energy:                                             314.502352 eV
  Excited state 14 (A)                                             [converged]
  Term symbol:  15 (-) A                                    R^2 =  1.79356e-13
  Excitation energy:                                             314.601331 eV
  Excited state 15 (A)                                             [converged]
  Term symbol:  16 (-) A                                    R^2 =  4.29030e-13
  Excitation energy:                                             314.787899 eV
  Excited state 16 (A)                                             [converged]
  Term symbol:  17 (-) A                                    R^2 =  8.10378e-13
  Excitation energy:                                             315.879136 eV
  Excited state 17 (A)                                             [converged]
  Term symbol:  18 (-) A                                    R^2 =  8.40277e-12
  Excitation energy:                                             326.977284 eV
  Excited state 18 (A)                                             [converged]
  Term symbol:  19 (-) A                                    R^2 =  1.25620e-11
  Excitation energy:                                             327.061998 eV
  Excited state 19 (A)                                         [not converged]
  Term symbol:  20 (-) A                                    R^2 =  7.10854e-05
  Excitation energy:                                             331.240495 eV
  Excited state 20 (A)                                         [not converged]
  Term symbol:  21 (-) A                                    R^2 =  3.03924e-05
  Excitation energy:                                             331.367041 eV

                    Orbital Energies (a.u.)
 --------------------------------------------------------------

 Alpha MOs
 -- Occupied --
-26.516 -26.509 -26.471 -26.131 -11.723  -1.899  -1.817  -1.751
 -1.346  -1.089  -0.984  -0.967  -0.924  -0.837  -0.815  -0.812
 -0.781  -0.773  -0.463  -0.463  -0.390

 Beta MOs
 -- Occupied --
-26.516 -26.509 -26.471 -26.131 -11.723  -1.899  -1.817  -1.751
 -1.346  -1.089  -0.984  -0.967  -0.924  -0.837  -0.815  -0.812
 -0.781  -0.773  -0.463  -0.463  -0.390

          Ground-State Mulliken Net Atomic Charges

     Atom                 Charge (a.u.)    Spin (a.u.)
  --------------------------------------------------------
      1 C                     1.154373       0.000000
      2 F                    -0.163556       0.000000
      3 F                    -0.258890       0.000000
      4 F                    -0.573711       0.000000
      5 F                    -0.158216       0.000000
  --------------------------------------------------------
  Sum of atomic charges =     0.000000

                    Cartesian Multipole Moments
 -----------------------------------------------------------------
    Charge (ESU x 10^10)
                 0.0000
    Dipole Moment (Debye)
         X       2.2588      Y       6.1699      Z      -2.8491
       Tot       7.1615
    Quadrupole Moments (Debye-Ang)
        XX     -27.7922     XY      -2.3457     YY      -5.7566
        XZ       3.3490     YZ      -3.1274     ZZ     -24.9687

 Total job time:  1996.69s(wall), 3311.10s(cpu)
        *  Thank you very much for using Q-Chem.  Have a nice day.  *
