 Q-Chem 4.3, Q-Chem, Inc., Pleasanton, CA (2015)
 Q-Chem 4.3.0 for Intel X86 Linux

User input:
--------------------------------------------------------------
$comment
XAS calculation for the 2b valence excited for water using cvs-adc(2)-x + 6-311+G* basis set
job 1 - determination of HF orbitals
$end

$molecule
0 1
6  -0.352622  2.678642  -0.260733
9  0.842835  2.924005  -0.259265
9  -1.031333  3.195195  0.747988
9  -1.948263  0.29594  1.080045
9  -0.913477  2.853964  -1.402553
$end

$rem
jobtype      sp
sym_ignore true
exchange     hf
basis        6-31G*
unrestricted true
$end

--------------------------------------------------------------

   13    -435.3079458589      8.69E-06 Convergence criterion met
 Total energy in the final basis set = -435.3079458589
 Total job time:  3.47s(wall), 13.48s(cpu)
        *  Thank you very much for using Q-Chem.  Have a nice day.  *
 Q-Chem 4.3, Q-Chem, Inc., Pleasanton, CA (2015)
 Q-Chem 4.3.0 for Intel X86 Linux

User input:
--------------------------------------------------------------

$comment
job3 - cvs-adc(2) calculation
$end

$molecule
read
$end

$rem
mem_total 3000
mem_static 1500
sym_ignore true
scf_guess read
method cvs-adc(2)
basis 6-31G*
ee_singlets 20
cc_rest_occ 5                  !only excitations from the lowest N orbitals
unrestricted  true
max_scf_cycles 200
$end
--------------------------------------------------------------

             Standard Nuclear Orientation (Angstroms)
    I     Atom           X                Y                Z
 ----------------------------------------------------------------
    1      C      -0.3526220000     2.6786420000    -0.2607330000
    2      F       0.8428350000     2.9240050000    -0.2592650000
    3      F      -1.0313330000     3.1951950000     0.7479880000
    4      F      -1.9482630000     0.2959400000     1.0800450000
    5      F      -0.9134770000     2.8539640000    -1.4025530000
 ----------------------------------------------------------------

    9    -435.3079466406      8.64E-09 Convergence criterion met
 Total energy in the final basis set = -435.3079466406
  Term symbol:  2 (-) A                                     R^2 =  7.87615e-08
  Excitation energy:                                             294.053236 eV
  Term symbol:  3 (-) A                                     R^2 =  2.30763e-07
  Excitation energy:                                             295.783260 eV
  Term symbol:  4 (-) A                                     R^2 =  1.58560e-08
  Excitation energy:                                             301.894541 eV
  Term symbol:  5 (-) A                                     R^2 =  1.77470e-08
  Excitation energy:                                             302.554707 eV
  Term symbol:  6 (-) A                                     R^2 =  3.93300e-09
  Excitation energy:                                             303.939542 eV
  Term symbol:  7 (-) A                                     R^2 =  1.02374e-08
  Excitation energy:                                             304.134945 eV
  Term symbol:  8 (-) A                                     R^2 =  1.85095e-08
  Excitation energy:                                             304.584846 eV
  Term symbol:  9 (-) A                                     R^2 =  8.00095e-09
  Excitation energy:                                             305.978940 eV
  Term symbol:  10 (-) A                                    R^2 =  1.38587e-11
  Excitation energy:                                             312.838800 eV
  Excited state 10 (A)                                             [converged]
  Term symbol:  11 (-) A                                    R^2 =  1.70814e-08
  Excitation energy:                                             313.090306 eV
  Excited state 11 (A)                                             [converged]
  Term symbol:  12 (-) A                                    R^2 =  8.69932e-09
  Excitation energy:                                             313.484237 eV
  Excited state 12 (A)                                             [converged]
  Term symbol:  13 (-) A                                    R^2 =  4.44406e-08
  Excitation energy:                                             313.573383 eV
  Excited state 13 (A)                                             [converged]
  Term symbol:  14 (-) A                                    R^2 =  1.91314e-09
  Excitation energy:                                             313.883928 eV
  Excited state 14 (A)                                             [converged]
  Term symbol:  15 (-) A                                    R^2 =  1.70183e-08
  Excitation energy:                                             314.146943 eV
  Excited state 15 (A)                                             [converged]
  Term symbol:  16 (-) A                                    R^2 =  7.62903e-09
  Excitation energy:                                             314.224382 eV
  Excited state 16 (A)                                             [converged]
  Term symbol:  17 (-) A                                    R^2 =  1.25231e-08
  Excitation energy:                                             314.995143 eV
  Excited state 17 (A)                                             [converged]
  Term symbol:  18 (-) A                                    R^2 =  6.41246e-08
  Excitation energy:                                             323.285390 eV
  Excited state 18 (A)                                             [converged]
  Term symbol:  19 (-) A                                    R^2 =  2.99066e-08
  Excitation energy:                                             323.372852 eV
  Excited state 19 (A)                                         [not converged]
  Term symbol:  20 (-) A                                    R^2 =  4.97133e-04
  Excitation energy:                                             330.823960 eV
  Excited state 20 (A)                                         [not converged]
  Term symbol:  21 (-) A                                    R^2 =  1.03631e-03
  Excitation energy:                                             330.967284 eV

                    Orbital Energies (a.u.)
 --------------------------------------------------------------

 Alpha MOs
 -- Occupied --
-26.551 -26.518 -26.492 -26.065 -11.735  -1.937  -1.828  -1.781
 -1.291  -1.114  -1.005  -0.996  -0.954  -0.851  -0.844  -0.828
 -0.800  -0.791  -0.408  -0.408  -0.330

 Beta MOs
 -- Occupied --
-26.551 -26.518 -26.492 -26.065 -11.735  -1.937  -1.828  -1.781
 -1.291  -1.114  -1.005  -0.996  -0.954  -0.851  -0.844  -0.828
 -0.800  -0.791  -0.408  -0.408  -0.330

          Ground-State Mulliken Net Atomic Charges

     Atom                 Charge (a.u.)    Spin (a.u.)
  --------------------------------------------------------
      1 C                     1.159998       0.000000
      2 F                    -0.125975       0.000000
      3 F                    -0.197791       0.000000
      4 F                    -0.648994       0.000000
      5 F                    -0.187239       0.000000
  --------------------------------------------------------
  Sum of atomic charges =     0.000000

                    Cartesian Multipole Moments
 -----------------------------------------------------------------
    Charge (ESU x 10^10)
                 0.0000
    Dipole Moment (Debye)
         X       5.2671      Y       7.0401      Z      -4.1588
       Tot       9.7263
    Quadrupole Moments (Debye-Ang)
        XX     -34.6534     XY       0.1420     YY      -2.2898
        XZ       6.5598     YZ      -3.4227     ZZ     -26.8098

 Total job time:  2044.95s(wall), 3368.92s(cpu)
        *  Thank you very much for using Q-Chem.  Have a nice day.  *
