 Q-Chem 4.3, Q-Chem, Inc., Pleasanton, CA (2015)
 Q-Chem 4.3.0 for Intel X86 Linux

User input:
--------------------------------------------------------------
$comment
XAS calculation for the 2b valence excited for water using cvs-adc(2)-x + 6-311+G* basis set
job 1 - determination of HF orbitals
$end

$molecule
0 1
6  -0.634484  2.499347  -0.038761
9  0.596629  2.339752  -0.000272
9  -1.136512  3.264353  0.781851
9  -1.157433  1.147827  0.451095
9  -1.140079  2.550033  -1.218684
$end

$rem
jobtype      sp
sym_ignore true
exchange     hf
basis        6-31G*
unrestricted true
$end

--------------------------------------------------------------

    8    -435.6003526896      6.18E-06 Convergence criterion met
 Total energy in the final basis set = -435.6003526896
 Total job time:  2.32s(wall), 9.84s(cpu)
        *  Thank you very much for using Q-Chem.  Have a nice day.  *
 Q-Chem 4.3, Q-Chem, Inc., Pleasanton, CA (2015)
 Q-Chem 4.3.0 for Intel X86 Linux

User input:
--------------------------------------------------------------

$comment
job3 - cvs-adc(2) calculation
$end

$molecule
read
$end

$rem
mem_total 3000
mem_static 1500
sym_ignore true
scf_guess read
method cvs-adc(2)
basis 6-31G*
ee_singlets 20
cc_rest_occ 5                  !only excitations from the lowest N orbitals
unrestricted  true
max_scf_cycles 200
$end
--------------------------------------------------------------

             Standard Nuclear Orientation (Angstroms)
    I     Atom           X                Y                Z
 ----------------------------------------------------------------
    1      C      -0.6344840000     2.4993470000    -0.0387610000
    2      F       0.5966290000     2.3397520000    -0.0002720000
    3      F      -1.1365120000     3.2643530000     0.7818510000
    4      F      -1.1574330000     1.1478270000     0.4510950000
    5      F      -1.1400790000     2.5500330000    -1.2186840000
 ----------------------------------------------------------------

    6    -435.6003527750      5.43E-09 Convergence criterion met
 Total energy in the final basis set = -435.6003527750
  Term symbol:  2 (-) A                                     R^2 =  4.49076e-14
  Excitation energy:                                             297.992974 eV
  Term symbol:  3 (-) A                                     R^2 =  4.24410e-14
  Excitation energy:                                             300.059755 eV
  Term symbol:  4 (-) A                                     R^2 =  2.80254e-14
  Excitation energy:                                             302.800198 eV
  Term symbol:  5 (-) A                                     R^2 =  3.96256e-14
  Excitation energy:                                             303.951639 eV
  Term symbol:  6 (-) A                                     R^2 =  3.80706e-14
  Excitation energy:                                             304.386719 eV
  Term symbol:  7 (-) A                                     R^2 =  5.08688e-14
  Excitation energy:                                             305.078954 eV
  Term symbol:  8 (-) A                                     R^2 =  1.67179e-13
  Excitation energy:                                             306.147037 eV
  Term symbol:  9 (-) A                                     R^2 =  8.04658e-14
  Excitation energy:                                             306.536645 eV
  Term symbol:  10 (-) A                                    R^2 =  6.21885e-14
  Excitation energy:                                             312.114609 eV
  Excited state 10 (A)                                             [converged]
  Term symbol:  11 (-) A                                    R^2 =  9.23479e-14
  Excitation energy:                                             313.196319 eV
  Excited state 11 (A)                                             [converged]
  Term symbol:  12 (-) A                                    R^2 =  1.32364e-13
  Excitation energy:                                             313.913747 eV
  Excited state 12 (A)                                             [converged]
  Term symbol:  13 (-) A                                    R^2 =  1.33493e-13
  Excitation energy:                                             314.035291 eV
  Excited state 13 (A)                                             [converged]
  Term symbol:  14 (-) A                                    R^2 =  1.35647e-13
  Excitation energy:                                             314.293457 eV
  Excited state 14 (A)                                             [converged]
  Term symbol:  15 (-) A                                    R^2 =  4.85891e-13
  Excitation energy:                                             314.457936 eV
  Excited state 15 (A)                                             [converged]
  Term symbol:  16 (-) A                                    R^2 =  7.30320e-13
  Excitation energy:                                             315.566404 eV
  Excited state 16 (A)                                             [converged]
  Term symbol:  17 (-) A                                    R^2 =  4.92482e-13
  Excitation energy:                                             315.982037 eV
  Excited state 17 (A)                                             [converged]
  Term symbol:  18 (-) A                                    R^2 =  4.32250e-07
  Excitation energy:                                             330.541266 eV
  Excited state 18 (A)                                             [converged]
  Term symbol:  19 (-) A                                    R^2 =  2.28439e-07
  Excitation energy:                                             330.572690 eV
  Excited state 19 (A)                                         [not converged]
  Term symbol:  20 (-) A                                    R^2 =  2.27711e-06
  Excitation energy:                                             330.682844 eV
  Excited state 20 (A)                                         [not converged]
  Term symbol:  21 (-) A                                    R^2 =  1.33988e-06
  Excitation energy:                                             330.705927 eV

                    Orbital Energies (a.u.)
 --------------------------------------------------------------

 Alpha MOs
 -- Occupied --
-26.416 -26.414 -26.395 -26.274 -11.619  -1.844  -1.745  -1.714
 -1.545  -1.021  -0.925  -0.918  -0.882  -0.775  -0.768  -0.745
 -0.733  -0.705  -0.615  -0.608  -0.607

 Beta MOs
 -- Occupied --
-26.416 -26.414 -26.395 -26.274 -11.619  -1.844  -1.745  -1.714
 -1.545  -1.021  -0.925  -0.918  -0.882  -0.775  -0.768  -0.745
 -0.733  -0.705  -0.615  -0.608  -0.607

          Ground-State Mulliken Net Atomic Charges

     Atom                 Charge (a.u.)    Spin (a.u.)
  --------------------------------------------------------
      1 C                     1.280321       0.000000
      2 F                    -0.248451       0.000000
      3 F                    -0.233220       0.000000
      4 F                    -0.501836       0.000000
      5 F                    -0.296813       0.000000
  --------------------------------------------------------
  Sum of atomic charges =     0.000000

                    Cartesian Multipole Moments
 -----------------------------------------------------------------
    Charge (ESU x 10^10)
                 0.0000
    Dipole Moment (Debye)
         X       0.8375      Y       1.9798      Z      -0.4499
       Tot       2.1963
    Quadrupole Moments (Debye-Ang)
        XX     -25.6529     XY       0.0111     YY     -16.4131
        XZ       0.4415     YZ      -0.3963     ZZ     -24.6882

 Total job time:  2042.83s(wall), 3321.04s(cpu)
        *  Thank you very much for using Q-Chem.  Have a nice day.  *
