 Q-Chem 4.3, Q-Chem, Inc., Pleasanton, CA (2015)
 Q-Chem 4.3.0 for Intel X86 Linux

User input:
--------------------------------------------------------------
$comment
XAS calculation for the 2b valence excited for water using cvs-adc(2)-x + 6-311+G* basis set
job 1 - determination of HF orbitals
$end

$molecule
0 1
6  -0.484559  2.914891  -0.228423
9  0.603698  2.441944  -0.047051
9  -1.093685  3.342379  0.729586
9  -1.361557  0.603424  0.68271
9  -1.080314  2.652675  -1.224485
$end

$rem
jobtype      sp
sym_ignore true
exchange     hf
basis        6-31G*
unrestricted true
$end

--------------------------------------------------------------

   11    -435.3774113831      9.09E-06 Convergence criterion met
 Total energy in the final basis set = -435.3774113831
 Total job time:  3.08s(wall), 12.94s(cpu)
        *  Thank you very much for using Q-Chem.  Have a nice day.  *
 Q-Chem 4.3, Q-Chem, Inc., Pleasanton, CA (2015)
 Q-Chem 4.3.0 for Intel X86 Linux

User input:
--------------------------------------------------------------

$comment
job3 - cvs-adc(2) calculation
$end

$molecule
read
$end

$rem
mem_total 3000
mem_static 1500
sym_ignore true
scf_guess read
method cvs-adc(2)
basis 6-31G*
ee_singlets 20
cc_rest_occ 5                  !only excitations from the lowest N orbitals
unrestricted  true
max_scf_cycles 200
$end
--------------------------------------------------------------

             Standard Nuclear Orientation (Angstroms)
    I     Atom           X                Y                Z
 ----------------------------------------------------------------
    1      C      -0.4845590000     2.9148910000    -0.2284230000
    2      F       0.6036980000     2.4419440000    -0.0470510000
    3      F      -1.0936850000     3.3423790000     0.7295860000
    4      F      -1.3615570000     0.6034240000     0.6827100000
    5      F      -1.0803140000     2.6526750000    -1.2244850000
 ----------------------------------------------------------------

    7    -435.3774117699      4.52E-09 Convergence criterion met
 Total energy in the final basis set = -435.3774117699
  Term symbol:  2 (-) A                                     R^2 =  8.42125e-13
  Excitation energy:                                             294.341613 eV
  Term symbol:  3 (-) A                                     R^2 =  2.11517e-13
  Excitation energy:                                             296.214609 eV
  Term symbol:  4 (-) A                                     R^2 =  5.74134e-13
  Excitation energy:                                             304.237509 eV
  Term symbol:  5 (-) A                                     R^2 =  8.46113e-14
  Excitation energy:                                             305.889154 eV
  Term symbol:  6 (-) A                                     R^2 =  1.24829e-13
  Excitation energy:                                             305.899310 eV
  Term symbol:  7 (-) A                                     R^2 =  8.55527e-14
  Excitation energy:                                             306.404542 eV
  Term symbol:  8 (-) A                                     R^2 =  2.09754e-13
  Excitation energy:                                             308.059957 eV
  Term symbol:  9 (-) A                                     R^2 =  7.00839e-14
  Excitation energy:                                             308.551636 eV
  Term symbol:  10 (-) A                                    R^2 =  3.99096e-13
  Excitation energy:                                             312.470950 eV
  Excited state 10 (A)                                             [converged]
  Term symbol:  11 (-) A                                    R^2 =  3.45449e-13
  Excitation energy:                                             314.098692 eV
  Excited state 11 (A)                                             [converged]
  Term symbol:  12 (-) A                                    R^2 =  4.34200e-13
  Excitation energy:                                             314.548008 eV
  Excited state 12 (A)                                             [converged]
  Term symbol:  13 (-) A                                    R^2 =  9.31109e-14
  Excitation energy:                                             314.627769 eV
  Excited state 13 (A)                                             [converged]
  Term symbol:  14 (-) A                                    R^2 =  1.70196e-13
  Excitation energy:                                             314.947342 eV
  Excited state 14 (A)                                             [converged]
  Term symbol:  15 (-) A                                    R^2 =  1.09856e-13
  Excitation energy:                                             315.063557 eV
  Excited state 15 (A)                                             [converged]
  Term symbol:  16 (-) A                                    R^2 =  1.05397e-12
  Excitation energy:                                             317.849168 eV
  Excited state 16 (A)                                             [converged]
  Term symbol:  17 (-) A                                    R^2 =  1.40805e-11
  Excitation energy:                                             318.666428 eV
  Excited state 17 (A)                                         [not converged]
  Term symbol:  18 (-) A                                    R^2 =  2.13949e-06
  Excitation energy:                                             332.009229 eV
  Excited state 18 (A)                                         [not converged]
  Term symbol:  19 (-) A                                    R^2 =  2.79888e-05
  Excitation energy:                                             332.191331 eV
  Excited state 19 (A)                                         [not converged]
  Term symbol:  20 (-) A                                    R^2 =  9.50103e-06
  Excitation energy:                                             332.240067 eV
  Excited state 20 (A)                                         [not converged]
  Term symbol:  21 (-) A                                    R^2 =  1.15759e-03
  Excitation energy:                                             332.395376 eV

                    Orbital Energies (a.u.)
 --------------------------------------------------------------

 Alpha MOs
 -- Occupied --
-26.551 -26.545 -26.537 -25.957 -11.746  -1.986  -1.881  -1.866
 -1.215  -1.131  -1.055  -1.052  -0.996  -0.879  -0.879  -0.852
 -0.843  -0.823  -0.324  -0.324  -0.319

 Beta MOs
 -- Occupied --
-26.551 -26.545 -26.537 -25.957 -11.746  -1.986  -1.881  -1.866
 -1.215  -1.131  -1.055  -1.052  -0.996  -0.879  -0.879  -0.852
 -0.843  -0.823  -0.324  -0.324  -0.319

          Ground-State Mulliken Net Atomic Charges

     Atom                 Charge (a.u.)    Spin (a.u.)
  --------------------------------------------------------
      1 C                     1.117225       0.000000
      2 F                    -0.080805       0.000000
      3 F                    -0.095082       0.000000
      4 F                    -0.873248       0.000000
      5 F                    -0.068089       0.000000
  --------------------------------------------------------
  Sum of atomic charges =     0.000000

                    Cartesian Multipole Moments
 -----------------------------------------------------------------
    Charge (ESU x 10^10)
                 0.0000
    Dipole Moment (Debye)
         X       3.6946      Y       9.7128      Z      -3.9123
       Tot      11.1038
    Quadrupole Moments (Debye-Ang)
        XX     -29.2546     XY      -2.1071     YY      12.4733
        XZ       4.3233     YZ      -5.1296     ZZ     -24.1227

 Total job time:  2040.65s(wall), 3334.56s(cpu)
        *  Thank you very much for using Q-Chem.  Have a nice day.  *
