 Q-Chem 4.3, Q-Chem, Inc., Pleasanton, CA (2015)
 Q-Chem 4.3.0 for Intel X86 Linux

User input:
--------------------------------------------------------------
$comment
XAS calculation for the 2b valence excited for water using cvs-adc(2)-x + 6-311+G* basis set
job 1 - determination of HF orbitals
$end

$molecule
0 1
6  -0.542097  2.848925  -0.176808
9  0.638489  2.595311  -0.089113
9  -1.048784  3.598792  0.661717
9  -1.46906  0.01847  0.859723
9  -1.047485  2.883368  -1.312971
$end

$rem
jobtype      sp
sym_ignore true
exchange     hf
basis        6-31G*
unrestricted true
$end

--------------------------------------------------------------

   14    -435.3420265584      2.57E-06 Convergence criterion met
 Total energy in the final basis set = -435.3420265584
 Total job time:  3.59s(wall), 15.85s(cpu)
        *  Thank you very much for using Q-Chem.  Have a nice day.  *
 Q-Chem 4.3, Q-Chem, Inc., Pleasanton, CA (2015)
 Q-Chem 4.3.0 for Intel X86 Linux

User input:
--------------------------------------------------------------

$comment
job3 - cvs-adc(2) calculation
$end

$molecule
read
$end

$rem
mem_total 3000
mem_static 1500
sym_ignore true
scf_guess read
method cvs-adc(2)
basis 6-31G*
ee_singlets 20
cc_rest_occ 5                  !only excitations from the lowest N orbitals
unrestricted  true
max_scf_cycles 200
$end
--------------------------------------------------------------

             Standard Nuclear Orientation (Angstroms)
    I     Atom           X                Y                Z
 ----------------------------------------------------------------
    1      C      -0.5420970000     2.8489250000    -0.1768080000
    2      F       0.6384890000     2.5953110000    -0.0891130000
    3      F      -1.0487840000     3.5987920000     0.6617170000
    4      F      -1.4690600000     0.0184700000     0.8597230000
    5      F      -1.0474850000     2.8833680000    -1.3129710000
 ----------------------------------------------------------------

    8    -435.3420266554      7.69E-09 Convergence criterion met
 Total energy in the final basis set = -435.3420266554
  Term symbol:  2 (-) A                                     R^2 =  3.30062e-13
  Excitation energy:                                             294.450849 eV
  Term symbol:  3 (-) A                                     R^2 =  1.13777e-13
  Excitation energy:                                             296.356544 eV
  Term symbol:  4 (-) A                                     R^2 =  1.06333e-13
  Excitation energy:                                             303.394459 eV
  Term symbol:  5 (-) A                                     R^2 =  6.52183e-14
  Excitation energy:                                             304.435049 eV
  Term symbol:  6 (-) A                                     R^2 =  6.06568e-14
  Excitation energy:                                             305.100014 eV
  Term symbol:  7 (-) A                                     R^2 =  6.78321e-14
  Excitation energy:                                             305.288664 eV
  Term symbol:  8 (-) A                                     R^2 =  7.07470e-14
  Excitation energy:                                             306.561797 eV
  Term symbol:  9 (-) A                                     R^2 =  1.33444e-13
  Excitation energy:                                             307.384183 eV
  Term symbol:  10 (-) A                                    R^2 =  7.99203e-14
  Excitation energy:                                             313.012485 eV
  Excited state 10 (A)                                             [converged]
  Term symbol:  11 (-) A                                    R^2 =  1.88128e-13
  Excitation energy:                                             314.026726 eV
  Excited state 11 (A)                                             [converged]
  Term symbol:  12 (-) A                                    R^2 =  1.04850e-13
  Excitation energy:                                             314.391858 eV
  Excited state 12 (A)                                             [converged]
  Term symbol:  13 (-) A                                    R^2 =  1.33398e-13
  Excitation energy:                                             314.410623 eV
  Excited state 13 (A)                                             [converged]
  Term symbol:  14 (-) A                                    R^2 =  1.79463e-13
  Excitation energy:                                             314.602059 eV
  Excited state 14 (A)                                             [converged]
  Term symbol:  15 (-) A                                    R^2 =  2.42424e-13
  Excitation energy:                                             314.814704 eV
  Excited state 15 (A)                                             [converged]
  Term symbol:  16 (-) A                                    R^2 =  6.58144e-13
  Excitation energy:                                             314.907872 eV
  Excited state 16 (A)                                             [converged]
  Term symbol:  17 (-) A                                    R^2 =  6.65829e-13
  Excitation energy:                                             315.827369 eV
  Excited state 17 (A)                                             [converged]
  Term symbol:  18 (-) A                                    R^2 =  1.62990e-12
  Excitation energy:                                             326.235674 eV
  Excited state 18 (A)                                             [converged]
  Term symbol:  19 (-) A                                    R^2 =  1.54787e-12
  Excitation energy:                                             326.272274 eV
  Excited state 19 (A)                                         [not converged]
  Term symbol:  20 (-) A                                    R^2 =  7.86681e-06
  Excitation energy:                                             331.697233 eV
  Excited state 20 (A)                                         [not converged]
  Term symbol:  21 (-) A                                    R^2 =  1.52400e-05
  Excitation energy:                                             331.862287 eV

                    Orbital Energies (a.u.)
 --------------------------------------------------------------

 Alpha MOs
 -- Occupied --
-26.560 -26.551 -26.547 -25.998 -11.758  -1.977  -1.876  -1.859
 -1.238  -1.139  -1.052  -1.048  -0.993  -0.888  -0.884  -0.859
 -0.852  -0.833  -0.352  -0.352  -0.309

 Beta MOs
 -- Occupied --
-26.560 -26.551 -26.547 -25.998 -11.758  -1.977  -1.876  -1.859
 -1.238  -1.139  -1.052  -1.048  -0.993  -0.888  -0.884  -0.859
 -0.852  -0.833  -0.352  -0.352  -0.309

          Ground-State Mulliken Net Atomic Charges

     Atom                 Charge (a.u.)    Spin (a.u.)
  --------------------------------------------------------
      1 C                     1.152094       0.000000
      2 F                    -0.098500       0.000000
      3 F                    -0.132663       0.000000
      4 F                    -0.775842       0.000000
      5 F                    -0.145090       0.000000
  --------------------------------------------------------
  Sum of atomic charges =     0.000000

                    Cartesian Multipole Moments
 -----------------------------------------------------------------
    Charge (ESU x 10^10)
                 0.0000
    Dipole Moment (Debye)
         X       3.5041      Y      10.2667      Z      -3.7132
       Tot      11.4661
    Quadrupole Moments (Debye-Ang)
        XX     -29.6523     XY      -4.9604     YY       6.8870
        XZ       4.8055     YZ      -1.8940     ZZ     -25.5303

 Total job time:  2063.94s(wall), 3349.91s(cpu)
        *  Thank you very much for using Q-Chem.  Have a nice day.  *
