 Q-Chem 4.3, Q-Chem, Inc., Pleasanton, CA (2015)
 Q-Chem 4.3.0 for Intel X86 Linux

User input:
--------------------------------------------------------------
$comment
XAS calculation for the 2b valence excited for water using cvs-adc(2)-x + 6-311+G* basis set
job 1 - determination of HF orbitals
$end

$molecule
0 1
6  -0.461214  2.642544  -0.197656
9  0.852372  2.887496  -0.242986
9  -1.025148  3.183919  0.722136
9  -1.880974  0.380994  1.026275
9  -0.924317  2.833771  -1.378924
$end

$rem
jobtype      sp
sym_ignore true
exchange     hf
basis        6-31G*
unrestricted true
$end

--------------------------------------------------------------

   14    -435.3250274460      6.06E-06 Convergence criterion met
 Total energy in the final basis set = -435.3250274460
 Total job time:  3.52s(wall), 16.30s(cpu)
        *  Thank you very much for using Q-Chem.  Have a nice day.  *
 Q-Chem 4.3, Q-Chem, Inc., Pleasanton, CA (2015)
 Q-Chem 4.3.0 for Intel X86 Linux

User input:
--------------------------------------------------------------

$comment
job3 - cvs-adc(2) calculation
$end

$molecule
read
$end

$rem
mem_total 3000
mem_static 1500
sym_ignore true
scf_guess read
method cvs-adc(2)
basis 6-31G*
ee_singlets 20
cc_rest_occ 5                  !only excitations from the lowest N orbitals
unrestricted  true
max_scf_cycles 200
$end
--------------------------------------------------------------

             Standard Nuclear Orientation (Angstroms)
    I     Atom           X                Y                Z
 ----------------------------------------------------------------
    1      C      -0.4612140000     2.6425440000    -0.1976560000
    2      F       0.8523720000     2.8874960000    -0.2429860000
    3      F      -1.0251480000     3.1839190000     0.7221360000
    4      F      -1.8809740000     0.3809940000     1.0262750000
    5      F      -0.9243170000     2.8337710000    -1.3789240000
 ----------------------------------------------------------------

    9    -435.3250277875      8.58E-09 Convergence criterion met
 Total energy in the final basis set = -435.3250277875
  Term symbol:  2 (-) A                                     R^2 =  2.96047e-13
  Excitation energy:                                             293.896501 eV
  Term symbol:  3 (-) A                                     R^2 =  1.04977e-13
  Excitation energy:                                             295.665455 eV
  Term symbol:  4 (-) A                                     R^2 =  3.75089e-13
  Excitation energy:                                             301.268098 eV
  Term symbol:  5 (-) A                                     R^2 =  5.10754e-13
  Excitation energy:                                             302.878281 eV
  Term symbol:  6 (-) A                                     R^2 =  3.23103e-13
  Excitation energy:                                             303.324381 eV
  Term symbol:  7 (-) A                                     R^2 =  4.48765e-14
  Excitation energy:                                             304.914793 eV
  Term symbol:  8 (-) A                                     R^2 =  8.09409e-14
  Excitation energy:                                             304.977741 eV
  Term symbol:  9 (-) A                                     R^2 =  1.26287e-13
  Excitation energy:                                             306.704111 eV
  Term symbol:  10 (-) A                                    R^2 =  1.92938e-13
  Excitation energy:                                             313.127755 eV
  Excited state 10 (A)                                             [converged]
  Term symbol:  11 (-) A                                    R^2 =  3.63438e-13
  Excitation energy:                                             313.569324 eV
  Excited state 11 (A)                                             [converged]
  Term symbol:  12 (-) A                                    R^2 =  8.86339e-13
  Excitation energy:                                             313.594958 eV
  Excited state 12 (A)                                             [converged]
  Term symbol:  13 (-) A                                    R^2 =  1.91673e-13
  Excitation energy:                                             313.794647 eV
  Excited state 13 (A)                                             [converged]
  Term symbol:  14 (-) A                                    R^2 =  4.32106e-13
  Excitation energy:                                             314.132437 eV
  Excited state 14 (A)                                             [converged]
  Term symbol:  15 (-) A                                    R^2 =  2.92379e-13
  Excitation energy:                                             314.303445 eV
  Excited state 15 (A)                                             [converged]
  Term symbol:  16 (-) A                                    R^2 =  6.99906e-13
  Excitation energy:                                             314.455690 eV
  Excited state 16 (A)                                             [converged]
  Term symbol:  17 (-) A                                    R^2 =  9.07352e-13
  Excitation energy:                                             315.297228 eV
  Excited state 17 (A)                                             [converged]
  Term symbol:  18 (-) A                                    R^2 =  1.64117e-12
  Excitation energy:                                             324.300720 eV
  Excited state 18 (A)                                             [converged]
  Term symbol:  19 (-) A                                    R^2 =  5.51500e-12
  Excitation energy:                                             324.386442 eV
  Excited state 19 (A)                                         [not converged]
  Term symbol:  20 (-) A                                    R^2 =  1.28912e-05
  Excitation energy:                                             330.818792 eV
  Excited state 20 (A)                                         [not converged]
  Term symbol:  21 (-) A                                    R^2 =  4.16941e-06
  Excitation energy:                                             330.953582 eV

                    Orbital Energies (a.u.)
 --------------------------------------------------------------

 Alpha MOs
 -- Occupied --
-26.528 -26.508 -26.491 -26.098 -11.729  -1.922  -1.824  -1.772
 -1.318  -1.100  -0.997  -0.985  -0.940  -0.849  -0.826  -0.817
 -0.797  -0.783  -0.436  -0.436  -0.359

 Beta MOs
 -- Occupied --
-26.528 -26.508 -26.491 -26.098 -11.729  -1.922  -1.824  -1.772
 -1.318  -1.100  -0.997  -0.985  -0.940  -0.849  -0.826  -0.817
 -0.797  -0.783  -0.436  -0.436  -0.359

          Ground-State Mulliken Net Atomic Charges

     Atom                 Charge (a.u.)    Spin (a.u.)
  --------------------------------------------------------
      1 C                     1.140322       0.000000
      2 F                    -0.249789       0.000000
      3 F                    -0.083426       0.000000
      4 F                    -0.615669       0.000000
      5 F                    -0.191438       0.000000
  --------------------------------------------------------
  Sum of atomic charges =     0.000000

                    Cartesian Multipole Moments
 -----------------------------------------------------------------
    Charge (ESU x 10^10)
                 0.0000
    Dipole Moment (Debye)
         X       3.6873      Y       6.4041      Z      -3.2023
       Tot       8.0538
    Quadrupole Moments (Debye-Ang)
        XX     -33.0049     XY      -2.5424     YY      -3.5842
        XZ       5.5175     YZ      -1.7882     ZZ     -26.3208

 Total job time:  2073.21s(wall), 3350.98s(cpu)
        *  Thank you very much for using Q-Chem.  Have a nice day.  *
