 Q-Chem 4.3, Q-Chem, Inc., Pleasanton, CA (2015)
 Q-Chem 4.3.0 for Intel X86 Linux

User input:
--------------------------------------------------------------
$comment
XAS calculation for the 2b valence excited for water using cvs-adc(2)-x + 6-311+G* basis set
job 1 - determination of HF orbitals
$end

$molecule
0 1
6  -0.592863  2.864761  -0.148347
9  0.604748  2.459864  -0.035612
9  -1.092724  3.458407  0.706745
9  -1.319769  0.440313  0.690017
9  -1.099726  2.735671  -1.254125
$end

$rem
jobtype      sp
sym_ignore true
exchange     hf
basis        6-31G*
unrestricted true
$end

--------------------------------------------------------------

    9    -435.3890659222      9.96E-06 Convergence criterion met
 Total energy in the final basis set = -435.3890659222
 Total job time:  2.40s(wall), 11.14s(cpu)
        *  Thank you very much for using Q-Chem.  Have a nice day.  *
 Q-Chem 4.3, Q-Chem, Inc., Pleasanton, CA (2015)
 Q-Chem 4.3.0 for Intel X86 Linux

User input:
--------------------------------------------------------------

$comment
job3 - cvs-adc(2) calculation
$end

$molecule
read
$end

$rem
mem_total 3000
mem_static 1500
sym_ignore true
scf_guess read
method cvs-adc(2)
basis 6-31G*
ee_singlets 20
cc_rest_occ 5                  !only excitations from the lowest N orbitals
unrestricted  true
max_scf_cycles 200
$end
--------------------------------------------------------------

             Standard Nuclear Orientation (Angstroms)
    I     Atom           X                Y                Z
 ----------------------------------------------------------------
    1      C      -0.5928630000     2.8647610000    -0.1483470000
    2      F       0.6047480000     2.4598640000    -0.0356120000
    3      F      -1.0927240000     3.4584070000     0.7067450000
    4      F      -1.3197690000     0.4403130000     0.6900170000
    5      F      -1.0997260000     2.7356710000    -1.2541250000
 ----------------------------------------------------------------

    7    -435.3890661109      8.46E-09 Convergence criterion met
 Total energy in the final basis set = -435.3890661109
  Term symbol:  2 (-) A                                     R^2 =  1.90681e-10
  Excitation energy:                                             294.948405 eV
  Term symbol:  3 (-) A                                     R^2 =  3.75328e-11
  Excitation energy:                                             296.910081 eV
  Term symbol:  4 (-) A                                     R^2 =  3.32185e-10
  Excitation energy:                                             302.909384 eV
  Term symbol:  5 (-) A                                     R^2 =  3.26148e-10
  Excitation energy:                                             304.665212 eV
  Term symbol:  6 (-) A                                     R^2 =  3.09334e-10
  Excitation energy:                                             304.724280 eV
  Term symbol:  7 (-) A                                     R^2 =  2.38497e-10
  Excitation energy:                                             306.846045 eV
  Term symbol:  8 (-) A                                     R^2 =  5.18797e-11
  Excitation energy:                                             307.330269 eV
  Term symbol:  9 (-) A                                     R^2 =  1.07242e-11
  Excitation energy:                                             309.344187 eV
  Term symbol:  10 (-) A                                    R^2 =  1.81677e-10
  Excitation energy:                                             312.851990 eV
  Excited state 10 (A)                                             [converged]
  Term symbol:  11 (-) A                                    R^2 =  9.91114e-11
  Excitation energy:                                             314.239480 eV
  Excited state 11 (A)                                             [converged]
  Term symbol:  12 (-) A                                    R^2 =  1.10652e-09
  Excitation energy:                                             314.754864 eV
  Excited state 12 (A)                                             [converged]
  Term symbol:  13 (-) A                                    R^2 =  7.58855e-10
  Excitation energy:                                             315.110084 eV
  Excited state 13 (A)                                             [converged]
  Term symbol:  14 (-) A                                    R^2 =  1.36498e-10
  Excitation energy:                                             315.113627 eV
  Excited state 14 (A)                                             [converged]
  Term symbol:  15 (-) A                                    R^2 =  4.46044e-11
  Excitation energy:                                             315.634872 eV
  Excited state 15 (A)                                             [converged]
  Term symbol:  16 (-) A                                    R^2 =  1.12941e-10
  Excitation energy:                                             317.074852 eV
  Excited state 16 (A)                                             [converged]
  Term symbol:  17 (-) A                                    R^2 =  7.04635e-11
  Excitation energy:                                             318.038826 eV
  Excited state 17 (A)                                         [not converged]
  Term symbol:  18 (-) A                                    R^2 =  1.55864e-02
  Excitation energy:                                             330.714560 eV
  Excited state 18 (A)                                         [not converged]
  Term symbol:  19 (-) A                                    R^2 =  9.56196e-03
  Excitation energy:                                             330.721018 eV
  Excited state 19 (A)                                             [converged]
  Term symbol:  20 (-) A                                    R^2 =  8.03498e-09
  Excitation energy:                                             331.205071 eV
  Excited state 20 (A)                                         [not converged]
  Term symbol:  21 (-) A                                    R^2 =  1.91186e-05
  Excitation energy:                                             331.224264 eV

                    Orbital Energies (a.u.)
 --------------------------------------------------------------

 Alpha MOs
 -- Occupied --
-26.573 -26.537 -26.510 -25.999 -11.745  -1.993  -1.884  -1.823
 -1.245  -1.135  -1.053  -1.040  -0.995  -0.877  -0.868  -0.861
 -0.824  -0.812  -0.357  -0.357  -0.337

 Beta MOs
 -- Occupied --
-26.573 -26.537 -26.510 -25.999 -11.745  -1.993  -1.884  -1.823
 -1.245  -1.135  -1.053  -1.040  -0.995  -0.877  -0.868  -0.861
 -0.824  -0.812  -0.357  -0.357  -0.337

          Ground-State Mulliken Net Atomic Charges

     Atom                 Charge (a.u.)    Spin (a.u.)
  --------------------------------------------------------
      1 C                     1.121412       0.000000
      2 F                    -0.170091       0.000000
      3 F                    -0.028807       0.000000
      4 F                    -0.800665       0.000000
      5 F                    -0.121849       0.000000
  --------------------------------------------------------
  Sum of atomic charges =     0.000000

                    Cartesian Multipole Moments
 -----------------------------------------------------------------
    Charge (ESU x 10^10)
                 0.0000
    Dipole Moment (Debye)
         X       2.4400      Y       9.5336      Z      -2.9779
       Tot      10.2816
    Quadrupole Moments (Debye-Ang)
        XX     -27.8381     XY      -5.1606     YY      10.1998
        XZ       3.5074     YZ      -2.3006     ZZ     -24.3660

 Total job time:  2051.05s(wall), 3354.36s(cpu)
        *  Thank you very much for using Q-Chem.  Have a nice day.  *
