 Q-Chem 4.3, Q-Chem, Inc., Pleasanton, CA (2015)
 Q-Chem 4.3.0 for Intel X86 Linux

User input:
--------------------------------------------------------------
$comment
XAS calculation for the 2b valence excited for water using cvs-adc(2)-x + 6-311+G* basis set
job 1 - determination of HF orbitals
$end

$molecule
0 1
6  -0.628637  2.34967  0.0
9  0.60215  2.34967  -0.0
9  -1.13316  3.29245  0.78541
9  -1.13317  1.1981  0.42375
9  -1.13317  2.55847  -1.20916
$end

$rem
jobtype      sp
sym_ignore true
exchange     hf
basis        6-31G*
unrestricted true
$end

--------------------------------------------------------------

    8    -435.6374640961      3.37E-06 Convergence criterion met
 Total energy in the final basis set = -435.6374640961
 Total job time:  2.28s(wall), 9.19s(cpu)
        *  Thank you very much for using Q-Chem.  Have a nice day.  *
 Q-Chem 4.3, Q-Chem, Inc., Pleasanton, CA (2015)
 Q-Chem 4.3.0 for Intel X86 Linux

User input:
--------------------------------------------------------------

$comment
job3 - cvs-adc(2) calculation
$end

$molecule
read
$end

$rem
mem_total 3000
mem_static 1500
sym_ignore true
scf_guess read
method cvs-adc(2)
basis 6-31G*
ee_singlets 20
cc_rest_occ 5                  !only excitations from the lowest N orbitals
unrestricted  true
max_scf_cycles 200
$end
--------------------------------------------------------------

             Standard Nuclear Orientation (Angstroms)
    I     Atom           X                Y                Z
 ----------------------------------------------------------------
    1      C      -0.6286370000     2.3496700000     0.0000000000
    2      F       0.6021500000     2.3496700000     0.0000000000
    3      F      -1.1331600000     3.2924500000     0.7854100000
    4      F      -1.1331700000     1.1981000000     0.4237500000
    5      F      -1.1331700000     2.5584700000    -1.2091600000
 ----------------------------------------------------------------

    5    -435.6374640615      3.59E-09 Convergence criterion met
 Total energy in the final basis set = -435.6374640615
  Term symbol:  2 (-) A                                     R^2 =  4.22641e-13
  Excitation energy:                                             300.924770 eV
  Term symbol:  3 (-) A                                     R^2 =  4.10783e-13
  Excitation energy:                                             300.924819 eV
  Term symbol:  4 (-) A                                     R^2 =  1.87461e-13
  Excitation energy:                                             302.718698 eV
  Term symbol:  5 (-) A                                     R^2 =  1.14084e-13
  Excitation energy:                                             303.056584 eV
  Term symbol:  6 (-) A                                     R^2 =  2.89299e-13
  Excitation energy:                                             303.056630 eV
  Term symbol:  7 (-) A                                     R^2 =  2.97012e-13
  Excitation energy:                                             304.385588 eV
  Term symbol:  8 (-) A                                     R^2 =  4.07989e-13
  Excitation energy:                                             305.115375 eV
  Term symbol:  9 (-) A                                     R^2 =  5.96833e-13
  Excitation energy:                                             306.709778 eV
  Term symbol:  10 (-) A                                    R^2 =  3.74968e-13
  Excitation energy:                                             312.980717 eV
  Excited state 10 (A)                                             [converged]
  Term symbol:  11 (-) A                                    R^2 =  1.24576e-13
  Excitation energy:                                             313.502087 eV
  Excited state 11 (A)                                             [converged]
  Term symbol:  12 (-) A                                    R^2 =  8.93348e-14
  Excitation energy:                                             313.502117 eV
  Excited state 12 (A)                                             [converged]
  Term symbol:  13 (-) A                                    R^2 =  7.70664e-14
  Excitation energy:                                             313.846495 eV
  Excited state 13 (A)                                             [converged]
  Term symbol:  14 (-) A                                    R^2 =  1.02612e-13
  Excitation energy:                                             313.889410 eV
  Excited state 14 (A)                                             [converged]
  Term symbol:  15 (-) A                                    R^2 =  1.84602e-13
  Excitation energy:                                             313.889428 eV
  Excited state 15 (A)                                             [converged]
  Term symbol:  16 (-) A                                    R^2 =  4.52322e-13
  Excitation energy:                                             314.338767 eV
  Excited state 16 (A)                                             [converged]
  Term symbol:  17 (-) A                                    R^2 =  2.94138e-13
  Excitation energy:                                             314.729723 eV
  Excited state 17 (A)                                         [not converged]
  Term symbol:  18 (-) A                                    R^2 =  1.19731e-06
  Excitation energy:                                             330.211200 eV
  Excited state 18 (A)                                         [not converged]
  Term symbol:  19 (-) A                                    R^2 =  1.23049e-06
  Excitation energy:                                             330.211231 eV
  Excited state 19 (A)                                             [converged]
  Term symbol:  20 (-) A                                    R^2 =  7.60209e-08
  Excitation energy:                                             330.235033 eV
  Excited state 20 (A)                                             [converged]
  Term symbol:  21 (-) A                                    R^2 =  6.39364e-08
  Excitation energy:                                             330.235064 eV

                    Orbital Energies (a.u.)
 --------------------------------------------------------------

 Alpha MOs
 -- Occupied --
-26.409 -26.362 -26.362 -26.362 -11.606  -1.827  -1.709  -1.658
 -1.658  -1.009  -0.901  -0.890  -0.890  -0.760  -0.760  -0.716
 -0.698  -0.698  -0.670  -0.670  -0.660

 Beta MOs
 -- Occupied --
-26.409 -26.362 -26.362 -26.362 -11.606  -1.827  -1.709  -1.658
 -1.658  -1.009  -0.901  -0.890  -0.890  -0.760  -0.760  -0.716
 -0.698  -0.698  -0.670  -0.670  -0.660

          Ground-State Mulliken Net Atomic Charges

     Atom                 Charge (a.u.)    Spin (a.u.)
  --------------------------------------------------------
      1 C                     1.305137       0.000000
      2 F                    -0.245691       0.000000
      3 F                    -0.353153       0.000000
      4 F                    -0.353148       0.000000
      5 F                    -0.353144       0.000000
  --------------------------------------------------------
  Sum of atomic charges =     0.000000

                    Cartesian Multipole Moments
 -----------------------------------------------------------------
    Charge (ESU x 10^10)
                 0.0000
    Dipole Moment (Debye)
         X       0.7551      Y       0.0000      Z       0.0000
       Tot       0.7551
    Quadrupole Moments (Debye-Ang)
        XX     -25.5282     XY       1.7743     YY     -25.1462
        XZ       0.0000     YZ      -0.0001     ZZ     -25.1460

 Total job time:  2172.43s(wall), 3628.82s(cpu)
        *  Thank you very much for using Q-Chem.  Have a nice day.  *
