 Q-Chem 4.3, Q-Chem, Inc., Pleasanton, CA (2015)
 Q-Chem 4.3.0 for Intel X86 Linux

User input:
--------------------------------------------------------------
$comment
XAS calculation for the 2b valence excited for water using cvs-adc(2)-x + 6-311+G* basis set
job 1 - determination of HF orbitals
$end

$molecule
0 1
6  -0.489325  2.941153  -0.215196
9  0.667114  2.364548  -0.027079
9  -1.134137  3.158789  0.785333
9  -1.337032  0.952483  0.601299
9  -1.111035  2.538611  -1.225519
$end

$rem
jobtype      sp
sym_ignore true
exchange     hf
basis        6-31G*
unrestricted true
$end

--------------------------------------------------------------

   12    -435.3542262855      4.66E-06 Convergence criterion met
 Total energy in the final basis set = -435.3542262855
 Total job time:  3.25s(wall), 13.30s(cpu)
        *  Thank you very much for using Q-Chem.  Have a nice day.  *
 Q-Chem 4.3, Q-Chem, Inc., Pleasanton, CA (2015)
 Q-Chem 4.3.0 for Intel X86 Linux

User input:
--------------------------------------------------------------

$comment
job3 - cvs-adc(2) calculation
$end

$molecule
read
$end

$rem
mem_total 3000
mem_static 1500
sym_ignore true
scf_guess read
method cvs-adc(2)
basis 6-31G*
ee_singlets 20
cc_rest_occ 5                  !only excitations from the lowest N orbitals
unrestricted  true
max_scf_cycles 200
$end
--------------------------------------------------------------

             Standard Nuclear Orientation (Angstroms)
    I     Atom           X                Y                Z
 ----------------------------------------------------------------
    1      C      -0.4893250000     2.9411530000    -0.2151960000
    2      F       0.6671140000     2.3645480000    -0.0270790000
    3      F      -1.1341370000     3.1587890000     0.7853330000
    4      F      -1.3370320000     0.9524830000     0.6012990000
    5      F      -1.1110350000     2.5386110000    -1.2255190000
 ----------------------------------------------------------------

    8    -435.3542264734      7.56E-09 Convergence criterion met
 Total energy in the final basis set = -435.3542264734
  Term symbol:  2 (-) A                                     R^2 =  1.48093e-12
  Excitation energy:                                             293.057513 eV
  Term symbol:  3 (-) A                                     R^2 =  4.14856e-13
  Excitation energy:                                             294.853541 eV
  Term symbol:  4 (-) A                                     R^2 =  1.34001e-12
  Excitation energy:                                             302.628546 eV
  Term symbol:  5 (-) A                                     R^2 =  8.48243e-12
  Excitation energy:                                             303.995522 eV
  Term symbol:  6 (-) A                                     R^2 =  1.45373e-12
  Excitation energy:                                             304.767254 eV
  Term symbol:  7 (-) A                                     R^2 =  4.64953e-12
  Excitation energy:                                             305.259826 eV
  Term symbol:  8 (-) A                                     R^2 =  1.23909e-12
  Excitation energy:                                             306.065364 eV
  Term symbol:  9 (-) A                                     R^2 =  4.30191e-12
  Excitation energy:                                             307.166699 eV
  Term symbol:  10 (-) A                                    R^2 =  6.01449e-13
  Excitation energy:                                             312.152365 eV
  Excited state 10 (A)                                             [converged]
  Term symbol:  11 (-) A                                    R^2 =  7.18148e-12
  Excitation energy:                                             313.626546 eV
  Excited state 11 (A)                                             [converged]
  Term symbol:  12 (-) A                                    R^2 =  2.96524e-13
  Excitation energy:                                             314.079079 eV
  Excited state 12 (A)                                             [converged]
  Term symbol:  13 (-) A                                    R^2 =  2.01520e-12
  Excitation energy:                                             314.156636 eV
  Excited state 13 (A)                                             [converged]
  Term symbol:  14 (-) A                                    R^2 =  6.89494e-13
  Excitation energy:                                             314.546866 eV
  Excited state 14 (A)                                             [converged]
  Term symbol:  15 (-) A                                    R^2 =  2.58224e-12
  Excitation energy:                                             314.753609 eV
  Excited state 15 (A)                                             [converged]
  Term symbol:  16 (-) A                                    R^2 =  3.95152e-12
  Excitation energy:                                             320.004481 eV
  Excited state 16 (A)                                             [converged]
  Term symbol:  17 (-) A                                    R^2 =  3.30433e-13
  Excitation energy:                                             320.543371 eV
  Excited state 17 (A)                                         [not converged]
  Term symbol:  18 (-) A                                    R^2 =  1.67927e-04
  Excitation energy:                                             331.863581 eV
  Excited state 18 (A)                                         [not converged]
  Term symbol:  19 (-) A                                    R^2 =  4.62031e-04
  Excitation energy:                                             332.022589 eV
  Excited state 19 (A)                                         [not converged]
  Term symbol:  20 (-) A                                    R^2 =  3.01047e-03
  Excitation energy:                                             332.285072 eV
  Excited state 20 (A)                                         [not converged]
  Term symbol:  21 (-) A                                    R^2 =  8.67501e-03
  Excitation energy:                                             332.381974 eV

                    Orbital Energies (a.u.)
 --------------------------------------------------------------

 Alpha MOs
 -- Occupied --
-26.527 -26.515 -26.497 -25.975 -11.734  -1.922  -1.827  -1.787
 -1.244  -1.096  -1.000  -0.993  -0.936  -0.838  -0.829  -0.811
 -0.797  -0.787  -0.349  -0.348  -0.344

 Beta MOs
 -- Occupied --
-26.527 -26.515 -26.497 -25.975 -11.734  -1.922  -1.827  -1.787
 -1.244  -1.096  -1.000  -0.993  -0.936  -0.838  -0.829  -0.811
 -0.797  -0.787  -0.349  -0.348  -0.344

          Ground-State Mulliken Net Atomic Charges

     Atom                 Charge (a.u.)    Spin (a.u.)
  --------------------------------------------------------
      1 C                     1.235155       0.000000
      2 F                    -0.188893       0.000000
      3 F                    -0.050116       0.000000
      4 F                    -0.867670       0.000000
      5 F                    -0.128477       0.000000
  --------------------------------------------------------
  Sum of atomic charges =     0.000000

                    Cartesian Multipole Moments
 -----------------------------------------------------------------
    Charge (ESU x 10^10)
                 0.0000
    Dipole Moment (Debye)
         X       3.1283      Y       8.4101      Z      -3.1840
       Tot       9.5212
    Quadrupole Moments (Debye-Ang)
        XX     -28.9580     XY      -1.4392     YY      11.1716
        XZ       3.4378     YZ      -4.7818     ZZ     -23.9660

 Total job time:  2138.43s(wall), 3465.31s(cpu)
        *  Thank you very much for using Q-Chem.  Have a nice day.  *
