 Q-Chem 4.3, Q-Chem, Inc., Pleasanton, CA (2015)
 Q-Chem 4.3.0 for Intel X86 Linux

User input:
--------------------------------------------------------------
$comment
XAS calculation for the 2b valence excited for water using cvs-adc(2)-x + 6-311+G* basis set
job 1 - determination of HF orbitals
$end

$molecule
0 1
6  -0.457518  2.705863  -0.23444
9  0.803166  2.746465  -0.19973
9  -1.031096  3.322521  0.717883
9  -1.767513  0.263164  0.985118
9  -0.938087  2.827992  -1.356822
$end

$rem
jobtype      sp
sym_ignore true
exchange     hf
basis        6-31G*
unrestricted true
$end

--------------------------------------------------------------

   12    -435.3409826215      6.06E-06 Convergence criterion met
 Total energy in the final basis set = -435.3409826215
 Total job time:  3.22s(wall), 13.71s(cpu)
        *  Thank you very much for using Q-Chem.  Have a nice day.  *
 Q-Chem 4.3, Q-Chem, Inc., Pleasanton, CA (2015)
 Q-Chem 4.3.0 for Intel X86 Linux

User input:
--------------------------------------------------------------

$comment
job3 - cvs-adc(2) calculation
$end

$molecule
read
$end

$rem
mem_total 3000
mem_static 1500
sym_ignore true
scf_guess read
method cvs-adc(2)
basis 6-31G*
ee_singlets 20
cc_rest_occ 5                  !only excitations from the lowest N orbitals
unrestricted  true
max_scf_cycles 200
$end
--------------------------------------------------------------

             Standard Nuclear Orientation (Angstroms)
    I     Atom           X                Y                Z
 ----------------------------------------------------------------
    1      C      -0.4575180000     2.7058630000    -0.2344400000
    2      F       0.8031660000     2.7464650000    -0.1997300000
    3      F      -1.0310960000     3.3225210000     0.7178830000
    4      F      -1.7675130000     0.2631640000     0.9851180000
    5      F      -0.9380870000     2.8279920000    -1.3568220000
 ----------------------------------------------------------------

    9    -435.3409828023      4.32E-09 Convergence criterion met
 Total energy in the final basis set = -435.3409828023
  Term symbol:  2 (-) A                                     R^2 =  2.34397e-13
  Excitation energy:                                             294.176772 eV
  Term symbol:  3 (-) A                                     R^2 =  7.08224e-14
  Excitation energy:                                             296.021894 eV
  Term symbol:  4 (-) A                                     R^2 =  9.23539e-14
  Excitation energy:                                             303.114517 eV
  Term symbol:  5 (-) A                                     R^2 =  4.73210e-14
  Excitation energy:                                             303.351903 eV
  Term symbol:  6 (-) A                                     R^2 =  4.46390e-14
  Excitation energy:                                             304.341279 eV
  Term symbol:  7 (-) A                                     R^2 =  7.61441e-14
  Excitation energy:                                             305.049302 eV
  Term symbol:  8 (-) A                                     R^2 =  5.02208e-14
  Excitation energy:                                             305.421776 eV
  Term symbol:  9 (-) A                                     R^2 =  3.40643e-14
  Excitation energy:                                             306.318201 eV
  Term symbol:  10 (-) A                                    R^2 =  8.25994e-14
  Excitation energy:                                             313.124829 eV
  Excited state 10 (A)                                             [converged]
  Term symbol:  11 (-) A                                    R^2 =  6.43883e-14
  Excitation energy:                                             313.618563 eV
  Excited state 11 (A)                                             [converged]
  Term symbol:  12 (-) A                                    R^2 =  6.16506e-14
  Excitation energy:                                             313.917112 eV
  Excited state 12 (A)                                             [converged]
  Term symbol:  13 (-) A                                    R^2 =  5.90375e-14
  Excitation energy:                                             314.073401 eV
  Excited state 13 (A)                                             [converged]
  Term symbol:  14 (-) A                                    R^2 =  6.53386e-14
  Excitation energy:                                             314.391337 eV
  Excited state 14 (A)                                             [converged]
  Term symbol:  15 (-) A                                    R^2 =  1.39386e-13
  Excitation energy:                                             314.541333 eV
  Excited state 15 (A)                                             [converged]
  Term symbol:  16 (-) A                                    R^2 =  4.95667e-14
  Excitation energy:                                             314.592913 eV
  Excited state 16 (A)                                             [converged]
  Term symbol:  17 (-) A                                    R^2 =  2.34251e-13
  Excitation energy:                                             315.531906 eV
  Excited state 17 (A)                                             [converged]
  Term symbol:  18 (-) A                                    R^2 =  1.68965e-12
  Excitation energy:                                             325.316354 eV
  Excited state 18 (A)                                             [converged]
  Term symbol:  19 (-) A                                    R^2 =  1.54414e-12
  Excitation energy:                                             325.378946 eV
  Excited state 19 (A)                                         [not converged]
  Term symbol:  20 (-) A                                    R^2 =  8.75619e-05
  Excitation energy:                                             331.399030 eV
  Excited state 20 (A)                                         [not converged]
  Term symbol:  21 (-) A                                    R^2 =  6.96244e-05
  Excitation energy:                                             331.542818 eV

                    Orbital Energies (a.u.)
 --------------------------------------------------------------

 Alpha MOs
 -- Occupied --
-26.542 -26.529 -26.514 -26.053 -11.741  -1.942  -1.843  -1.818
 -1.282  -1.118  -1.019  -1.014  -0.962  -0.863  -0.859  -0.836
 -0.821  -0.807  -0.398  -0.398  -0.336

 Beta MOs
 -- Occupied --
-26.542 -26.529 -26.514 -26.053 -11.741  -1.942  -1.843  -1.818
 -1.282  -1.118  -1.019  -1.014  -0.962  -0.863  -0.859  -0.836
 -0.821  -0.807  -0.398  -0.398  -0.336

          Ground-State Mulliken Net Atomic Charges

     Atom                 Charge (a.u.)    Spin (a.u.)
  --------------------------------------------------------
      1 C                     1.151470       0.000000
      2 F                    -0.174082       0.000000
      3 F                    -0.163119       0.000000
      4 F                    -0.686761       0.000000
      5 F                    -0.127507       0.000000
  --------------------------------------------------------
  Sum of atomic charges =     0.000000

                    Cartesian Multipole Moments
 -----------------------------------------------------------------
    Charge (ESU x 10^10)
                 0.0000
    Dipole Moment (Debye)
         X       4.1616      Y       7.7607      Z      -4.0969
       Tot       9.7125
    Quadrupole Moments (Debye-Ang)
        XX     -32.6033     XY      -2.4408     YY       0.1914
        XZ       6.0272     YZ      -3.5195     ZZ     -25.9568

 Total job time:  2012.60s(wall), 3226.13s(cpu)
        *  Thank you very much for using Q-Chem.  Have a nice day.  *
