 Q-Chem 4.3, Q-Chem, Inc., Pleasanton, CA (2015)
 Q-Chem 4.3.0 for Intel X86 Linux

User input:
--------------------------------------------------------------
$comment
XAS calculation for the 2b valence excited for water using cvs-adc(2)-x + 6-311+G* basis set
job 1 - determination of HF orbitals
$end

$molecule
0 1
6  -0.318253  2.706603  -0.283979
9  0.838235  2.933135  -0.263841
9  -1.031641  3.19485  0.753938
9  -1.970543  0.2677  1.097851
9  -0.909182  2.857645  -1.407098
$end

$rem
jobtype      sp
sym_ignore true
exchange     hf
basis        6-31G*
unrestricted true
$end

--------------------------------------------------------------

   14    -435.2950954908      4.04E-06 Convergence criterion met
 Total energy in the final basis set = -435.2950954908

                    Orbital Energies (a.u.)
 --------------------------------------------------------------

 Alpha MOs
 -- Occupied --
-26.578 -26.528 -26.487 -26.038 -11.743  -1.976  -1.845  -1.769
 -1.269  -1.134  -1.027  -1.009  -0.978  -0.863  -0.846  -0.839
 -0.797  -0.790  -0.385  -0.385  -0.315

 Beta MOs
 -- Occupied --
-26.578 -26.528 -26.487 -26.038 -11.743  -1.976  -1.845  -1.769
 -1.269  -1.134  -1.027  -1.009  -0.978  -0.863  -0.846  -0.839
 -0.797  -0.790  -0.385  -0.385  -0.315

          Ground-State Mulliken Net Atomic Charges

     Atom                 Charge (a.u.)    Spin (a.u.)
  --------------------------------------------------------
      1 C                     1.150204       0.000000
      2 F                    -0.067927       0.000000
      3 F                    -0.216242       0.000000
      4 F                    -0.687985       0.000000
      5 F                    -0.178050       0.000000
  --------------------------------------------------------
  Sum of atomic charges =     0.000000

                    Cartesian Multipole Moments
 -----------------------------------------------------------------
    Charge (ESU x 10^10)
                 0.0000
    Dipole Moment (Debye)
         X       5.9889      Y       7.6674      Z      -4.6541
       Tot      10.7850
    Quadrupole Moments (Debye-Ang)
        XX     -35.5681     XY       0.8774     YY      -0.3661
        XZ       7.1964     YZ      -4.0804     ZZ     -27.0071

 Total job time:  3.71s(wall), 15.70s(cpu)
        *  Thank you very much for using Q-Chem.  Have a nice day.  *
 Q-Chem 4.3, Q-Chem, Inc., Pleasanton, CA (2015)
 Q-Chem 4.3.0 for Intel X86 Linux

User input:
--------------------------------------------------------------

$comment
job3 - cvs-adc(2) calculation
$end

$molecule
read
$end

$rem
mem_total 3000
mem_static 1500
sym_ignore true
scf_guess read
method cvs-adc(2)
basis 6-31G*
ee_singlets 20
cc_rest_occ 5                  !only excitations from the lowest N orbitals
unrestricted  true
max_scf_cycles 200
$end
--------------------------------------------------------------

             Standard Nuclear Orientation (Angstroms)
    I     Atom           X                Y                Z
 ----------------------------------------------------------------
    1      C      -0.3182530000     2.7066030000    -0.2839790000
    2      F       0.8382350000     2.9331350000    -0.2638410000
    3      F      -1.0316410000     3.1948500000     0.7539380000
    4      F      -1.9705430000     0.2677000000     1.0978510000
    5      F      -0.9091820000     2.8576450000    -1.4070980000
 ----------------------------------------------------------------

    9    -435.2950958564      7.77E-09 Convergence criterion met
 Total energy in the final basis set = -435.2950958564
