 Q-Chem 4.3, Q-Chem, Inc., Pleasanton, CA (2015)
 Q-Chem 4.3.0 for Intel X86 Linux

User input:
--------------------------------------------------------------
$comment
XAS calculation for the 2b valence excited for water using cvs-adc(2)-x + 6-311+G* basis set
job 1 - determination of HF orbitals
$end

$molecule
0 1
6  -0.259825  2.827629  -0.348053
9  0.839312  2.956079  -0.275955
9  -1.023019  3.181814  0.758913
9  -2.03731  0.183313  1.151139
9  -0.89264  2.86144  -1.412881
$end

$rem
jobtype      sp
sym_ignore true
exchange     hf
basis        6-31G*
unrestricted true
$end

--------------------------------------------------------------

   14    -435.2618774426      2.67E-06 Convergence criterion met
 Total energy in the final basis set = -435.2618774426
 Total job time:  3.62s(wall), 15.53s(cpu)
        *  Thank you very much for using Q-Chem.  Have a nice day.  *
 Q-Chem 4.3, Q-Chem, Inc., Pleasanton, CA (2015)
 Q-Chem 4.3.0 for Intel X86 Linux

User input:
--------------------------------------------------------------

$comment
job3 - cvs-adc(2) calculation
$end

$molecule
read
$end

$rem
mem_total 3000
mem_static 1500
sym_ignore true
scf_guess read
method cvs-adc(2)
basis 6-31G*
ee_singlets 20
cc_rest_occ 5                  !only excitations from the lowest N orbitals
unrestricted  true
max_scf_cycles 200
$end
--------------------------------------------------------------

             Standard Nuclear Orientation (Angstroms)
    I     Atom           X                Y                Z
 ----------------------------------------------------------------
    1      C      -0.2598250000     2.8276290000    -0.3480530000
    2      F       0.8393120000     2.9560790000    -0.2759550000
    3      F      -1.0230190000     3.1818140000     0.7589130000
    4      F      -2.0373100000     0.1833130000     1.1511390000
    5      F      -0.8926400000     2.8614400000    -1.4128810000
 ----------------------------------------------------------------

    9    -435.2618771033      3.25E-09 Convergence criterion met
 Total energy in the final basis set = -435.2618771033
  Term symbol:  2 (-) A                                     R^2 =  1.97289e-07
  Excitation energy:                                             294.444877 eV
  Term symbol:  3 (-) A                                     R^2 =  1.57950e-07
  Excitation energy:                                             296.303967 eV
  Term symbol:  4 (-) A                                     R^2 =  4.18693e-07
  Excitation energy:                                             300.804951 eV
  Term symbol:  5 (-) A                                     R^2 =  2.00563e-07
  Excitation energy:                                             302.845431 eV
  Term symbol:  6 (-) A                                     R^2 =  3.45592e-08
  Excitation energy:                                             303.726200 eV
  Term symbol:  7 (-) A                                     R^2 =  4.20259e-07
  Excitation energy:                                             305.525939 eV
  Term symbol:  8 (-) A                                     R^2 =  3.16644e-07
  Excitation energy:                                             307.912713 eV
  Term symbol:  9 (-) A                                     R^2 =  1.08470e-06
  Excitation energy:                                             309.372450 eV
  Term symbol:  10 (-) A                                    R^2 =  1.19703e-06
  Excitation energy:                                             313.198486 eV
  Excited state 10 (A)                                             [converged]
  Term symbol:  11 (-) A                                    R^2 =  3.06989e-07
  Excitation energy:                                             313.623295 eV
  Excited state 11 (A)                                             [converged]
  Term symbol:  12 (-) A                                    R^2 =  7.84152e-07
  Excitation energy:                                             313.898045 eV
  Excited state 12 (A)                                         [not converged]
  Term symbol:  13 (-) A                                    R^2 =  2.11588e-06
  Excitation energy:                                             314.387153 eV
  Excited state 13 (A)                                             [converged]
  Term symbol:  14 (-) A                                    R^2 =  7.33651e-08
  Excitation energy:                                             314.669983 eV
  Excited state 14 (A)                                         [not converged]
  Term symbol:  15 (-) A                                    R^2 =  2.62852e-06
  Excitation energy:                                             315.315469 eV
  Excited state 15 (A)                                         [not converged]
  Term symbol:  16 (-) A                                    R^2 =  3.46169e-06
  Excitation energy:                                             315.889225 eV
  Excited state 16 (A)                                             [converged]
  Term symbol:  17 (-) A                                    R^2 =  8.29699e-07
  Excitation energy:                                             316.292371 eV
  Excited state 17 (A)                                         [not converged]
  Term symbol:  18 (-) A                                    R^2 =  3.79500e-06
  Excitation energy:                                             324.438306 eV
  Excited state 18 (A)                                         [not converged]
  Term symbol:  19 (-) A                                    R^2 =  2.36701e-05
  Excitation energy:                                             324.465687 eV
  Excited state 19 (A)                                         [not converged]
  Term symbol:  20 (-) A                                    R^2 =  2.85638e-01
  Excitation energy:                                             326.254439 eV
  Excited state 20 (A)                                             [converged]
  Term symbol:  21 (-) A                                    R^2 =  1.74548e-07
  Excitation energy:                                             330.018893 eV

                    Orbital Energies (a.u.)
 --------------------------------------------------------------

 Alpha MOs
 -- Occupied --
-26.646 -26.577 -26.502 -25.931 -11.781  -2.078  -1.914  -1.773
 -1.195  -1.183  -1.098  -1.066  -1.052  -0.913  -0.900  -0.857
 -0.810  -0.808  -0.296  -0.296  -0.263

 Beta MOs
 -- Occupied --
-26.646 -26.577 -26.502 -25.931 -11.781  -2.078  -1.914  -1.773
 -1.195  -1.183  -1.098  -1.066  -1.052  -0.913  -0.900  -0.857
 -0.810  -0.808  -0.296  -0.296  -0.263

          Ground-State Mulliken Net Atomic Charges

     Atom                 Charge (a.u.)    Spin (a.u.)
  --------------------------------------------------------
      1 C                     1.150788       0.000000
      2 F                     0.049052       0.000000
      3 F                    -0.223847       0.000000
      4 F                    -0.853502       0.000000
      5 F                    -0.122491       0.000000
  --------------------------------------------------------
  Sum of atomic charges =     0.000000

                    Cartesian Multipole Moments
 -----------------------------------------------------------------
    Charge (ESU x 10^10)
                 0.0000
    Dipole Moment (Debye)
         X       8.0450      Y      10.4388      Z      -6.4382
       Tot      14.6677
    Quadrupole Moments (Debye-Ang)
        XX     -39.1689     XY       1.2291     YY       8.5897
        XZ       9.8631     YZ      -6.0611     ZZ     -27.6276

 Total job time:  2241.99s(wall), 3635.70s(cpu)
        *  Thank you very much for using Q-Chem.  Have a nice day.  *
