 Q-Chem 4.3, Q-Chem, Inc., Pleasanton, CA (2015)
 Q-Chem 4.3.0 for Intel X86 Linux

User input:
--------------------------------------------------------------
$comment
XAS calculation for the 2b valence excited for water using cvs-adc(2)-x + 6-311+G* basis set
job 1 - determination of HF orbitals
$end

$molecule
0 1
6  -0.461091  2.923106  -0.226013
9  0.497459  2.25632  0.051956
9  -1.159464  3.38314  0.802948
9  -1.115865  0.837715  0.493506
9  -1.175097  2.561189  -1.201423
$end

$rem
jobtype      sp
sym_ignore true
exchange     hf
basis        6-31G*
unrestricted true
$end

--------------------------------------------------------------

   12    -435.3501682683      4.90E-06 Convergence criterion met
 Total energy in the final basis set = -435.3501682683
 Total job time:  3.31s(wall), 13.19s(cpu)
        *  Thank you very much for using Q-Chem.  Have a nice day.  *
 Q-Chem 4.3, Q-Chem, Inc., Pleasanton, CA (2015)
 Q-Chem 4.3.0 for Intel X86 Linux

User input:
--------------------------------------------------------------

$comment
job3 - cvs-adc(2) calculation
$end

$molecule
read
$end

$rem
mem_total 3000
mem_static 1500
sym_ignore true
scf_guess read
method cvs-adc(2)
basis 6-31G*
ee_singlets 20
cc_rest_occ 5                  !only excitations from the lowest N orbitals
unrestricted  true
max_scf_cycles 200
$end
--------------------------------------------------------------

             Standard Nuclear Orientation (Angstroms)
    I     Atom           X                Y                Z
 ----------------------------------------------------------------
    1      C      -0.4610910000     2.9231060000    -0.2260130000
    2      F       0.4974590000     2.2563200000     0.0519560000
    3      F      -1.1594640000     3.3831400000     0.8029480000
    4      F      -1.1158650000     0.8377150000     0.4935060000
    5      F      -1.1750970000     2.5611890000    -1.2014230000
 ----------------------------------------------------------------

    8    -435.3501684495      9.72E-09 Convergence criterion met
 Total energy in the final basis set = -435.3501684495
  Term symbol:  2 (-) A                                     R^2 =  1.03250e-13
  Excitation energy:                                             293.063288 eV
  Term symbol:  3 (-) A                                     R^2 =  8.23193e-14
  Excitation energy:                                             294.851576 eV
  Term symbol:  4 (-) A                                     R^2 =  5.14473e-14
  Excitation energy:                                             302.132714 eV
  Term symbol:  5 (-) A                                     R^2 =  1.14044e-13
  Excitation energy:                                             303.728128 eV
  Term symbol:  6 (-) A                                     R^2 =  9.31997e-14
  Excitation energy:                                             304.278424 eV
  Term symbol:  7 (-) A                                     R^2 =  9.76928e-14
  Excitation energy:                                             305.509287 eV
  Term symbol:  8 (-) A                                     R^2 =  1.76224e-13
  Excitation energy:                                             305.814589 eV
  Term symbol:  9 (-) A                                     R^2 =  1.38498e-13
  Excitation energy:                                             307.362509 eV
  Term symbol:  10 (-) A                                    R^2 =  1.08671e-13
  Excitation energy:                                             312.173459 eV
  Excited state 10 (A)                                             [converged]
  Term symbol:  11 (-) A                                    R^2 =  1.75739e-13
  Excitation energy:                                             313.624757 eV
  Excited state 11 (A)                                             [converged]
  Term symbol:  12 (-) A                                    R^2 =  1.95547e-13
  Excitation energy:                                             314.065827 eV
  Excited state 12 (A)                                             [converged]
  Term symbol:  13 (-) A                                    R^2 =  5.98039e-13
  Excitation energy:                                             314.183517 eV
  Excited state 13 (A)                                             [converged]
  Term symbol:  14 (-) A                                    R^2 =  1.08481e-12
  Excitation energy:                                             314.527617 eV
  Excited state 14 (A)                                             [converged]
  Term symbol:  15 (-) A                                    R^2 =  3.06339e-13
  Excitation energy:                                             314.813436 eV
  Excited state 15 (A)                                             [converged]
  Term symbol:  16 (-) A                                    R^2 =  1.08513e-11
  Excitation energy:                                             319.970759 eV
  Excited state 16 (A)                                             [converged]
  Term symbol:  17 (-) A                                    R^2 =  6.17311e-12
  Excitation energy:                                             320.518827 eV
  Excited state 17 (A)                                         [not converged]
  Term symbol:  18 (-) A                                    R^2 =  3.22753e-05
  Excitation energy:                                             331.685814 eV
  Excited state 18 (A)                                         [not converged]
  Term symbol:  19 (-) A                                    R^2 =  1.20753e-04
  Excitation energy:                                             331.851823 eV
  Excited state 19 (A)                                         [not converged]
  Term symbol:  20 (-) A                                    R^2 =  1.16487e-03
  Excitation energy:                                             332.290405 eV
  Excited state 20 (A)                                         [not converged]
  Term symbol:  21 (-) A                                    R^2 =  3.23665e-03
  Excitation energy:                                             332.370859 eV

                    Orbital Energies (a.u.)
 --------------------------------------------------------------

 Alpha MOs
 -- Occupied --
-26.533 -26.511 -26.492 -25.980 -11.734  -1.922  -1.825  -1.775
 -1.248  -1.095  -0.997  -0.989  -0.933  -0.836  -0.823  -0.811
 -0.792  -0.784  -0.352  -0.351  -0.346

 Beta MOs
 -- Occupied --
-26.533 -26.511 -26.492 -25.980 -11.734  -1.922  -1.825  -1.775
 -1.248  -1.095  -0.997  -0.989  -0.933  -0.836  -0.823  -0.811
 -0.792  -0.784  -0.352  -0.351  -0.346

          Ground-State Mulliken Net Atomic Charges

     Atom                 Charge (a.u.)    Spin (a.u.)
  --------------------------------------------------------
      1 C                     1.236479       0.000000
      2 F                    -0.032179       0.000000
      3 F                    -0.206632       0.000000
      4 F                    -0.861761       0.000000
      5 F                    -0.135907       0.000000
  --------------------------------------------------------
  Sum of atomic charges =     0.000000

                    Cartesian Multipole Moments
 -----------------------------------------------------------------
    Charge (ESU x 10^10)
                 0.0000
    Dipole Moment (Debye)
         X       3.1749      Y       8.2577      Z      -3.1304
       Tot       9.3845
    Quadrupole Moments (Debye-Ang)
        XX     -27.3390     XY       0.1473     YY       8.5265
        XZ       2.7159     YZ      -5.3955     ZZ     -23.7267

 Total job time:  2170.24s(wall), 3498.68s(cpu)
        *  Thank you very much for using Q-Chem.  Have a nice day.  *
