 Q-Chem 4.3, Q-Chem, Inc., Pleasanton, CA (2015)
 Q-Chem 4.3.0 for Intel X86 Linux

User input:
--------------------------------------------------------------
$comment
XAS calculation for the 2b valence excited for water using cvs-adc(2)-x + 6-311+G* basis set
job 1 - determination of HF orbitals
$end

$molecule
0 1
6  -0.296885  2.982584  -0.386869
9  0.880759  2.976766  -0.285858
9  -0.998191  3.155812  0.741071
9  -2.104089  0.099263  1.204339
9  -0.872446  2.858817  -1.413935
$end

$rem
jobtype      sp
sym_ignore true
exchange     hf
basis        6-31G*
unrestricted true
$end

--------------------------------------------------------------

   13    -435.2853483954      1.98E-06 Convergence criterion met
 Total energy in the final basis set = -435.2853483954
 Total job time:  3.41s(wall), 15.99s(cpu)
        *  Thank you very much for using Q-Chem.  Have a nice day.  *
 Q-Chem 4.3, Q-Chem, Inc., Pleasanton, CA (2015)
 Q-Chem 4.3.0 for Intel X86 Linux

User input:
--------------------------------------------------------------

$comment
job3 - cvs-adc(2) calculation
$end

$molecule
read
$end

$rem
mem_total 3000
mem_static 1500
sym_ignore true
scf_guess read
method cvs-adc(2)
basis 6-31G*
ee_singlets 20
cc_rest_occ 5                  !only excitations from the lowest N orbitals
unrestricted  true
max_scf_cycles 200
$end
--------------------------------------------------------------

             Standard Nuclear Orientation (Angstroms)
    I     Atom           X                Y                Z
 ----------------------------------------------------------------
    1      C      -0.2968850000     2.9825840000    -0.3868690000
    2      F       0.8807590000     2.9767660000    -0.2858580000
    3      F      -0.9981910000     3.1558120000     0.7410710000
    4      F      -2.1040890000     0.0992630000     1.2043390000
    5      F      -0.8724460000     2.8588170000    -1.4139350000
 ----------------------------------------------------------------

    9    -435.2853484245      7.83E-09 Convergence criterion met
 Total energy in the final basis set = -435.2853484245
  Term symbol:  2 (-) A                                     R^2 =  5.08782e-13
  Excitation energy:                                             294.472173 eV
  Term symbol:  3 (-) A                                     R^2 =  8.45663e-14
  Excitation energy:                                             296.375938 eV
  Term symbol:  4 (-) A                                     R^2 =  7.41579e-14
  Excitation energy:                                             301.504233 eV
  Term symbol:  5 (-) A                                     R^2 =  5.08287e-14
  Excitation energy:                                             303.378212 eV
  Term symbol:  6 (-) A                                     R^2 =  1.36680e-13
  Excitation energy:                                             304.691708 eV
  Term symbol:  7 (-) A                                     R^2 =  1.02952e-13
  Excitation energy:                                             306.454340 eV
  Term symbol:  8 (-) A                                     R^2 =  6.03682e-14
  Excitation energy:                                             307.073200 eV
  Term symbol:  9 (-) A                                     R^2 =  6.52322e-14
  Excitation energy:                                             309.189276 eV
  Term symbol:  10 (-) A                                    R^2 =  4.49417e-13
  Excitation energy:                                             313.247584 eV
  Excited state 10 (A)                                             [converged]
  Term symbol:  11 (-) A                                    R^2 =  2.45256e-13
  Excitation energy:                                             314.101882 eV
  Excited state 11 (A)                                             [converged]
  Term symbol:  12 (-) A                                    R^2 =  1.39899e-13
  Excitation energy:                                             314.323490 eV
  Excited state 12 (A)                                             [converged]
  Term symbol:  13 (-) A                                    R^2 =  1.23430e-13
  Excitation energy:                                             314.992861 eV
  Excited state 13 (A)                                             [converged]
  Term symbol:  14 (-) A                                    R^2 =  2.82051e-13
  Excitation energy:                                             315.130486 eV
  Excited state 14 (A)                                             [converged]
  Term symbol:  15 (-) A                                    R^2 =  2.08135e-13
  Excitation energy:                                             315.511250 eV
  Excited state 15 (A)                                             [converged]
  Term symbol:  16 (-) A                                    R^2 =  3.91651e-13
  Excitation energy:                                             315.670124 eV
  Excited state 16 (A)                                             [converged]
  Term symbol:  17 (-) A                                    R^2 =  5.19921e-13
  Excitation energy:                                             316.308917 eV
  Excited state 17 (A)                                         [not converged]
  Term symbol:  18 (-) A                                    R^2 =  2.30005e-03
  Excitation energy:                                             324.806252 eV
  Excited state 18 (A)                                             [converged]
  Term symbol:  19 (-) A                                    R^2 =  1.83137e-08
  Excitation energy:                                             324.810790 eV
  Excited state 19 (A)                                             [converged]
  Term symbol:  20 (-) A                                    R^2 =  1.33503e-07
  Excitation energy:                                             324.973254 eV
  Excited state 20 (A)                                         [not converged]
  Term symbol:  21 (-) A                                    R^2 =  1.49891e-06
  Excitation energy:                                             324.973254 eV

                    Orbital Energies (a.u.)
 --------------------------------------------------------------

 Alpha MOs
 -- Occupied --
-26.635 -26.632 -26.551 -25.860 -11.813  -2.051  -1.970  -1.836
 -1.198  -1.125  -1.120  -1.087  -1.058  -0.944  -0.936  -0.907
 -0.855  -0.853  -0.236  -0.236  -0.229

 Beta MOs
 -- Occupied --
-26.635 -26.632 -26.551 -25.860 -11.813  -2.051  -1.970  -1.836
 -1.198  -1.125  -1.120  -1.087  -1.058  -0.944  -0.936  -0.907
 -0.855  -0.853  -0.236  -0.236  -0.229

          Ground-State Mulliken Net Atomic Charges

     Atom                 Charge (a.u.)    Spin (a.u.)
  --------------------------------------------------------
      1 C                     1.231408       0.000000
      2 F                    -0.051672       0.000000
      3 F                    -0.173189       0.000000
      4 F                    -0.963267       0.000000
      5 F                    -0.043280       0.000000
  --------------------------------------------------------
  Sum of atomic charges =     0.000000

                    Cartesian Multipole Moments
 -----------------------------------------------------------------
    Charge (ESU x 10^10)
                 0.0000
    Dipole Moment (Debye)
         X       8.4344      Y      12.9992      Z      -7.6770
       Tot      17.2932
    Quadrupole Moments (Debye-Ang)
        XX     -42.1199     XY      -2.4294     YY      17.6129
        XZ      12.3612     YZ      -7.0984     ZZ     -27.9781

 Total job time:  1991.84s(wall), 3269.63s(cpu)
        *  Thank you very much for using Q-Chem.  Have a nice day.  *
