 Q-Chem 4.3, Q-Chem, Inc., Pleasanton, CA (2015)
 Q-Chem 4.3.0 for Intel X86 Linux

User input:
--------------------------------------------------------------
$comment
XAS calculation for the 2b valence excited for water using cvs-adc(2)-x + 6-311+G* basis set
job 1 - determination of HF orbitals
$end

$molecule
0 1
6  -0.514526  2.671269  -0.167211
9  0.762849  2.672257  -0.164501
9  -1.040987  3.280263  0.709092
9  -1.649107  0.457451  0.879833
9  -0.971401  2.773481  -1.320314
$end

$rem
jobtype      sp
sym_ignore true
exchange     hf
basis        6-31G*
unrestricted true
$end

--------------------------------------------------------------

   10    -435.3787218126      9.86E-06 Convergence criterion met
 Total energy in the final basis set = -435.3787218126
 Total job time:  2.71s(wall), 10.58s(cpu)
        *  Thank you very much for using Q-Chem.  Have a nice day.  *
 Q-Chem 4.3, Q-Chem, Inc., Pleasanton, CA (2015)
 Q-Chem 4.3.0 for Intel X86 Linux

User input:
--------------------------------------------------------------

$comment
job3 - cvs-adc(2) calculation
$end

$molecule
read
$end

$rem
mem_total 3000
mem_static 1500
sym_ignore true
scf_guess read
method cvs-adc(2)
basis 6-31G*
ee_singlets 20
cc_rest_occ 5                  !only excitations from the lowest N orbitals
unrestricted  true
max_scf_cycles 200
$end
--------------------------------------------------------------

             Standard Nuclear Orientation (Angstroms)
    I     Atom           X                Y                Z
 ----------------------------------------------------------------
    1      C      -0.5145260000     2.6712690000    -0.1672110000
    2      F       0.7628490000     2.6722570000    -0.1645010000
    3      F      -1.0409870000     3.2802630000     0.7090920000
    4      F      -1.6491070000     0.4574510000     0.8798330000
    5      F      -0.9714010000     2.7734810000    -1.3203140000
 ----------------------------------------------------------------

    8    -435.3787228302      7.12E-09 Convergence criterion met
 Total energy in the final basis set = -435.3787228302
  Term symbol:  2 (-) A                                     R^2 =  1.52729e-13
  Excitation energy:                                             294.316556 eV
  Term symbol:  3 (-) A                                     R^2 =  1.21565e-13
  Excitation energy:                                             296.247409 eV
  Term symbol:  4 (-) A                                     R^2 =  3.66992e-13
  Excitation energy:                                             303.077975 eV
  Term symbol:  5 (-) A                                     R^2 =  2.19729e-13
  Excitation energy:                                             303.963250 eV
  Term symbol:  6 (-) A                                     R^2 =  1.52919e-13
  Excitation energy:                                             305.179996 eV
  Term symbol:  7 (-) A                                     R^2 =  1.54031e-13
  Excitation energy:                                             305.772115 eV
  Term symbol:  8 (-) A                                     R^2 =  1.56790e-13
  Excitation energy:                                             305.906709 eV
  Term symbol:  9 (-) A                                     R^2 =  2.57955e-13
  Excitation energy:                                             307.657271 eV
  Term symbol:  10 (-) A                                    R^2 =  2.33343e-13
  Excitation energy:                                             313.112349 eV
  Excited state 10 (A)                                             [converged]
  Term symbol:  11 (-) A                                    R^2 =  1.19104e-13
  Excitation energy:                                             314.106092 eV
  Excited state 11 (A)                                             [converged]
  Term symbol:  12 (-) A                                    R^2 =  2.72394e-13
  Excitation energy:                                             314.107506 eV
  Excited state 12 (A)                                             [converged]
  Term symbol:  13 (-) A                                    R^2 =  1.11770e-13
  Excitation energy:                                             314.216984 eV
  Excited state 13 (A)                                             [converged]
  Term symbol:  14 (-) A                                    R^2 =  2.44422e-13
  Excitation energy:                                             314.618103 eV
  Excited state 14 (A)                                             [converged]
  Term symbol:  15 (-) A                                    R^2 =  3.00503e-13
  Excitation energy:                                             314.787724 eV
  Excited state 15 (A)                                             [converged]
  Term symbol:  16 (-) A                                    R^2 =  3.47836e-13
  Excitation energy:                                             315.585242 eV
  Excited state 16 (A)                                             [converged]
  Term symbol:  17 (-) A                                    R^2 =  3.62418e-13
  Excitation energy:                                             316.658273 eV
  Excited state 17 (A)                                             [converged]
  Term symbol:  18 (-) A                                    R^2 =  2.25111e-09
  Excitation energy:                                             328.014829 eV
  Excited state 18 (A)                                             [converged]
  Term symbol:  19 (-) A                                    R^2 =  1.75817e-09
  Excitation energy:                                             328.064339 eV
  Excited state 19 (A)                                         [not converged]
  Term symbol:  20 (-) A                                    R^2 =  1.17017e-01
  Excitation energy:                                             329.352263 eV
  Excited state 20 (A)                                         [not converged]
  Term symbol:  21 (-) A                                    R^2 =  6.16201e-05
  Excitation energy:                                             331.320165 eV

                    Orbital Energies (a.u.)
 --------------------------------------------------------------

 Alpha MOs
 -- Occupied --
-26.528 -26.514 -26.504 -26.078 -11.728  -1.947  -1.845  -1.807
 -1.305  -1.109  -1.018  -1.011  -0.959  -0.859  -0.846  -0.827
 -0.813  -0.795  -0.420  -0.420  -0.369

 Beta MOs
 -- Occupied --
-26.528 -26.514 -26.504 -26.078 -11.728  -1.947  -1.845  -1.807
 -1.305  -1.109  -1.018  -1.011  -0.959  -0.859  -0.846  -0.827
 -0.813  -0.795  -0.420  -0.420  -0.369

          Ground-State Mulliken Net Atomic Charges

     Atom                 Charge (a.u.)    Spin (a.u.)
  --------------------------------------------------------
      1 C                     1.106796       0.000000
      2 F                    -0.201152       0.000000
      3 F                    -0.078158       0.000000
      4 F                    -0.667808       0.000000
      5 F                    -0.159678       0.000000
  --------------------------------------------------------
  Sum of atomic charges =     0.000000

                    Cartesian Multipole Moments
 -----------------------------------------------------------------
    Charge (ESU x 10^10)
                 0.0000
    Dipole Moment (Debye)
         X       3.2741      Y       6.9893      Z      -3.0686
       Tot       8.3058
    Quadrupole Moments (Debye-Ang)
        XX     -30.7961     XY      -2.5778     YY      -0.5165
        XZ       4.5488     YZ      -2.2213     ZZ     -25.4754

 Total job time:  2058.40s(wall), 3322.58s(cpu)
        *  Thank you very much for using Q-Chem.  Have a nice day.  *
