 Q-Chem 4.3, Q-Chem, Inc., Pleasanton, CA (2015)
 Q-Chem 4.3.0 for Intel X86 Linux

User input:
--------------------------------------------------------------
$comment
XAS calculation for the 2b valence excited for water using cvs-adc(2)-x + 6-311+G* basis set
job 1 - determination of HF orbitals
$end

$molecule
0 1
6  -0.69934  2.34967  0.0
9  0.60215  2.34967  -0.0
9  -1.13316  3.29245  0.78541
9  -1.13317  1.1981  0.42375
9  -1.13317  2.55847  -1.20916
$end

$rem
jobtype      sp
sym_ignore true
exchange     hf
basis        6-31G*
unrestricted true
$end

--------------------------------------------------------------

    7    -435.6452068520      5.98E-06 Convergence criterion met
 Total energy in the final basis set = -435.6452068520
 Total job time:  4.09s(wall), 11.55s(cpu)
        *  Thank you very much for using Q-Chem.  Have a nice day.  *
 Q-Chem 4.3, Q-Chem, Inc., Pleasanton, CA (2015)
 Q-Chem 4.3.0 for Intel X86 Linux

User input:
--------------------------------------------------------------

$comment
job3 - cvs-adc(2) calculation
$end

$molecule
read
$end

$rem
mem_total 3000
mem_static 1500
sym_ignore true
scf_guess read
method cvs-adc(2)
basis 6-31G*
ee_singlets 20
cc_rest_occ 5                  !only excitations from the lowest N orbitals
unrestricted  true
max_scf_cycles 200
$end
--------------------------------------------------------------

             Standard Nuclear Orientation (Angstroms)
    I     Atom           X                Y                Z
 ----------------------------------------------------------------
    1      C      -0.6993400000     2.3496700000     0.0000000000
    2      F       0.6021500000     2.3496700000     0.0000000000
    3      F      -1.1331600000     3.2924500000     0.7854100000
    4      F      -1.1331700000     1.1981000000     0.4237500000
    5      F      -1.1331700000     2.5584700000    -1.2091600000
 ----------------------------------------------------------------

    5    -435.6452068527      4.21E-09 Convergence criterion met
 Total energy in the final basis set = -435.6452068527
  Term symbol:  2 (-) A                                     R^2 =  2.83582e-12
  Excitation energy:                                             301.615127 eV
  Term symbol:  3 (-) A                                     R^2 =  2.86489e-12
  Excitation energy:                                             301.615257 eV
  Term symbol:  4 (-) A                                     R^2 =  2.99165e-12
  Excitation energy:                                             301.615316 eV
  Term symbol:  5 (-) A                                     R^2 =  6.48911e-12
  Excitation energy:                                             303.764196 eV
  Term symbol:  6 (-) A                                     R^2 =  6.49415e-12
  Excitation energy:                                             303.764332 eV
  Term symbol:  7 (-) A                                     R^2 =  6.49608e-12
  Excitation energy:                                             303.764385 eV
  Term symbol:  8 (-) A                                     R^2 =  6.68944e-13
  Excitation energy:                                             303.930142 eV
  Term symbol:  9 (-) A                                     R^2 =  1.60375e-12
  Excitation energy:                                             306.570291 eV
  Term symbol:  10 (-) A                                    R^2 =  2.51107e-10
  Excitation energy:                                             313.311389 eV
  Excited state 10 (A)                                             [converged]
  Term symbol:  11 (-) A                                    R^2 =  7.79925e-09
  Excitation energy:                                             313.620340 eV
  Excited state 11 (A)                                             [converged]
  Term symbol:  12 (-) A                                    R^2 =  1.21370e-08
  Excitation energy:                                             313.620362 eV
  Excited state 12 (A)                                             [converged]
  Term symbol:  13 (-) A                                    R^2 =  8.64722e-09
  Excitation energy:                                             313.620392 eV
  Excited state 13 (A)                                             [converged]
  Term symbol:  14 (-) A                                    R^2 =  9.47824e-08
  Excitation energy:                                             314.009130 eV
  Excited state 14 (A)                                             [converged]
  Term symbol:  15 (-) A                                    R^2 =  9.41234e-08
  Excitation energy:                                             314.009146 eV
  Excited state 15 (A)                                             [converged]
  Term symbol:  16 (-) A                                    R^2 =  9.49435e-08
  Excitation energy:                                             314.009163 eV
  Excited state 16 (A)                                             [converged]
  Term symbol:  17 (-) A                                    R^2 =  2.25874e-10
  Excitation energy:                                             314.085136 eV
  Excited state 17 (A)                                             [converged]
  Term symbol:  18 (-) A                                    R^2 =  1.82652e-07
  Excitation energy:                                             330.176678 eV
  Excited state 18 (A)                                             [converged]
  Term symbol:  19 (-) A                                    R^2 =  4.09403e-07
  Excitation energy:                                             330.176720 eV
  Excited state 19 (A)                                             [converged]
  Term symbol:  20 (-) A                                    R^2 =  1.55937e-07
  Excitation energy:                                             330.199593 eV
  Excited state 20 (A)                                             [converged]
  Term symbol:  21 (-) A                                    R^2 =  1.60022e-07
  Excitation energy:                                             330.199635 eV

                    Orbital Energies (a.u.)
 --------------------------------------------------------------

 Alpha MOs
 -- Occupied --
-26.374 -26.374 -26.374 -26.374 -11.605  -1.813  -1.679  -1.679
 -1.679  -1.005  -0.890  -0.890  -0.890  -0.759  -0.759  -0.705
 -0.705  -0.705  -0.673  -0.673  -0.673

 Beta MOs
 -- Occupied --
-26.374 -26.374 -26.374 -26.374 -11.605  -1.813  -1.679  -1.679
 -1.679  -1.005  -0.890  -0.890  -0.890  -0.759  -0.759  -0.705
 -0.705  -0.705  -0.673  -0.673  -0.673

          Ground-State Mulliken Net Atomic Charges

     Atom                 Charge (a.u.)    Spin (a.u.)
  --------------------------------------------------------
      1 C                     1.312620       0.000000
      2 F                    -0.328153       0.000000
      3 F                    -0.328161       0.000000
      4 F                    -0.328155       0.000000
      5 F                    -0.328151       0.000000
  --------------------------------------------------------
  Sum of atomic charges =     0.000000

                    Cartesian Multipole Moments
 -----------------------------------------------------------------
    Charge (ESU x 10^10)
                 0.0000
    Dipole Moment (Debye)
         X       0.0000      Y       0.0000      Z       0.0000
       Tot       0.0000
    Quadrupole Moments (Debye-Ang)
        XX     -24.9359     XY       0.0000     YY     -24.9360
        XZ       0.0000     YZ      -0.0001     ZZ     -24.9359

 Total job time:  790.78s(wall), 1333.76s(cpu)
        *  Thank you very much for using Q-Chem.  Have a nice day.  *
