 Q-Chem 4.3, Q-Chem, Inc., Pleasanton, CA (2015)
 Q-Chem 4.3.0 for Intel X86 Linux

User input:
--------------------------------------------------------------
$comment
XAS calculation for the 2b valence excited for water using cvs-adc(2)-x + 6-311+G* basis set
job 1 - determination of HF orbitals
$end

$molecule
0 1
6  -0.462397  3.002287  -0.232482
9  0.522144  2.392932  -0.010484
9  -1.129622  3.346321  0.744954
9  -1.266019  0.631474  0.621114
9  -1.119974  2.640303  -1.19214
$end

$rem
jobtype      sp
sym_ignore true
exchange     hf
basis        6-31G*
unrestricted true
$end

--------------------------------------------------------------

   12    -435.3414227539      4.88E-06 Convergence criterion met
 Total energy in the final basis set = -435.3414227539
 Total job time:  3.32s(wall), 15.00s(cpu)
        *  Thank you very much for using Q-Chem.  Have a nice day.  *
 Q-Chem 4.3, Q-Chem, Inc., Pleasanton, CA (2015)
 Q-Chem 4.3.0 for Intel X86 Linux

User input:
--------------------------------------------------------------

$comment
job3 - cvs-adc(2) calculation
$end

$molecule
read
$end

$rem
mem_total 3000
mem_static 1500
sym_ignore true
scf_guess read
method cvs-adc(2)
basis 6-31G*
ee_singlets 20
cc_rest_occ 5                  !only excitations from the lowest N orbitals
unrestricted  true
max_scf_cycles 200
$end
--------------------------------------------------------------

             Standard Nuclear Orientation (Angstroms)
    I     Atom           X                Y                Z
 ----------------------------------------------------------------
    1      C      -0.4623970000     3.0022870000    -0.2324820000
    2      F       0.5221440000     2.3929320000    -0.0104840000
    3      F      -1.1296220000     3.3463210000     0.7449540000
    4      F      -1.2660190000     0.6314740000     0.6211140000
    5      F      -1.1199740000     2.6403030000    -1.1921400000
 ----------------------------------------------------------------

    8    -435.3414228740      4.75E-09 Convergence criterion met
 Total energy in the final basis set = -435.3414228740
  Term symbol:  2 (-) A                                     R^2 =  5.51115e-06
  Excitation energy:                                             293.352095 eV
  Term symbol:  3 (-) A                                     R^2 =  5.47262e-06
  Excitation energy:                                             295.152764 eV
  Term symbol:  4 (-) A                                     R^2 =  9.12308e-06
  Excitation energy:                                             304.569925 eV
  Term symbol:  5 (-) A                                     R^2 =  1.42987e-05
  Excitation energy:                                             305.015486 eV
  Term symbol:  6 (-) A                                     R^2 =  3.37460e-06
  Excitation energy:                                             306.168196 eV
  Term symbol:  7 (-) A                                     R^2 =  1.11225e-05
  Excitation energy:                                             306.620219 eV
  Term symbol:  8 (-) A                                     R^2 =  5.74567e-05
  Excitation energy:                                             306.982299 eV
  Term symbol:  9 (-) A                                     R^2 =  5.64316e-06
  Excitation energy:                                             307.984786 eV
  Term symbol:  10 (-) A                                    R^2 =  1.07075e-06
  Excitation energy:                                             312.240443 eV
  Excited state 10 (A)                                         [not converged]
  Term symbol:  11 (-) A                                    R^2 =  3.39953e-06
  Excitation energy:                                             313.818161 eV
  Excited state 11 (A)                                         [not converged]
  Term symbol:  12 (-) A                                    R^2 =  1.89186e-06
  Excitation energy:                                             313.919679 eV
  Excited state 12 (A)                                         [not converged]
  Term symbol:  13 (-) A                                    R^2 =  4.85208e-06
  Excitation energy:                                             313.945395 eV
  Excited state 13 (A)                                         [not converged]
  Term symbol:  14 (-) A                                    R^2 =  3.52423e-06
  Excitation energy:                                             314.295678 eV
  Excited state 14 (A)                                         [not converged]
  Term symbol:  15 (-) A                                    R^2 =  2.14175e-06
  Excitation energy:                                             314.548818 eV
  Excited state 15 (A)                                         [not converged]
  Term symbol:  16 (-) A                                    R^2 =  2.97674e-06
  Excitation energy:                                             317.990903 eV
  Excited state 16 (A)                                         [not converged]
  Term symbol:  17 (-) A                                    R^2 =  2.03287e-06
  Excitation energy:                                             318.643326 eV
  Excited state 17 (A)                                         [not converged]
  Term symbol:  18 (-) A                                    R^2 =  2.55321e-01
  Excitation energy:                                             324.940846 eV
  Excited state 18 (A)                                         [not converged]
  Term symbol:  19 (-) A                                    R^2 =  7.87499e-01
  Excitation energy:                                             330.748645 eV
  Excited state 19 (A)                                         [not converged]
  Term symbol:  20 (-) A                                    R^2 =  2.73681e-06
  Excitation energy:                                             331.784211 eV
  Excited state 20 (A)                                         [not converged]
  Term symbol:  21 (-) A                                    R^2 =  6.87603e-06
  Excitation energy:                                             331.969693 eV

                    Orbital Energies (a.u.)
 --------------------------------------------------------------

 Alpha MOs
 -- Occupied --
-26.552 -26.536 -26.531 -25.946 -11.743  -1.982  -1.871  -1.846
 -1.207  -1.127  -1.044  -1.042  -0.987  -0.873  -0.869  -0.838
 -0.828  -0.814  -0.315  -0.315  -0.311

 Beta MOs
 -- Occupied --
-26.552 -26.536 -26.531 -25.946 -11.743  -1.982  -1.871  -1.846
 -1.207  -1.127  -1.044  -1.042  -0.987  -0.873  -0.869  -0.838
 -0.828  -0.814  -0.315  -0.315  -0.311

          Ground-State Mulliken Net Atomic Charges

     Atom                 Charge (a.u.)    Spin (a.u.)
  --------------------------------------------------------
      1 C                     1.118579       0.000000
      2 F                    -0.025900       0.000000
      3 F                    -0.108060       0.000000
      4 F                    -0.894344       0.000000
      5 F                    -0.090276       0.000000
  --------------------------------------------------------
  Sum of atomic charges =     0.000000

                    Cartesian Multipole Moments
 -----------------------------------------------------------------
    Charge (ESU x 10^10)
                 0.0000
    Dipole Moment (Debye)
         X       3.6973      Y      10.1022      Z      -3.6860
       Tot      11.3715
    Quadrupole Moments (Debye-Ang)
        XX     -28.5492     XY      -1.3997     YY      15.0311
        XZ       3.6907     YZ      -5.1790     ZZ     -23.9836

 Total job time:  2239.84s(wall), 3645.11s(cpu)
        *  Thank you very much for using Q-Chem.  Have a nice day.  *
