 Q-Chem 4.3, Q-Chem, Inc., Pleasanton, CA (2015)
 Q-Chem 4.3.0 for Intel X86 Linux

User input:
--------------------------------------------------------------
$comment
XAS calculation for the 2b valence excited for water using cvs-adc(2)-x + 6-311+G* basis set
job 1 - determination of HF orbitals
$end

$molecule
0 1
6  -0.447381  2.780918  -0.207554
9  0.697756  2.585027  -0.125906
9  -1.069964  3.229851  0.728818
9  -1.5621  0.598669  0.802526
9  -1.007579  2.701493  -1.275711
$end

$rem
jobtype      sp
sym_ignore true
exchange     hf
basis        6-31G*
unrestricted true
$end

--------------------------------------------------------------

    9    -435.3908459077      6.89E-06 Convergence criterion met
 Total energy in the final basis set = -435.3908459077
 Total job time:  2.52s(wall), 11.64s(cpu)
        *  Thank you very much for using Q-Chem.  Have a nice day.  *
 Q-Chem 4.3, Q-Chem, Inc., Pleasanton, CA (2015)
 Q-Chem 4.3.0 for Intel X86 Linux

User input:
--------------------------------------------------------------

$comment
job3 - cvs-adc(2) calculation
$end

$molecule
read
$end

$rem
mem_total 3000
mem_static 1500
sym_ignore true
scf_guess read
method cvs-adc(2)
basis 6-31G*
ee_singlets 20
cc_rest_occ 5                  !only excitations from the lowest N orbitals
unrestricted  true
max_scf_cycles 200
$end
--------------------------------------------------------------

             Standard Nuclear Orientation (Angstroms)
    I     Atom           X                Y                Z
 ----------------------------------------------------------------
    1      C      -0.4473810000     2.7809180000    -0.2075540000
    2      F       0.6977560000     2.5850270000    -0.1259060000
    3      F      -1.0699640000     3.2298510000     0.7288180000
    4      F      -1.5621000000     0.5986690000     0.8025260000
    5      F      -1.0075790000     2.7014930000    -1.2757110000
 ----------------------------------------------------------------

    7    -435.3908461575      4.68E-09 Convergence criterion met
 Total energy in the final basis set = -435.3908461575
  Term symbol:  2 (-) A                                     R^2 =  2.12386e-13
  Excitation energy:                                             295.042837 eV
  Term symbol:  3 (-) A                                     R^2 =  4.72207e-13
  Excitation energy:                                             297.016869 eV
  Term symbol:  4 (-) A                                     R^2 =  2.24677e-13
  Excitation energy:                                             303.808611 eV
  Term symbol:  5 (-) A                                     R^2 =  1.62207e-13
  Excitation energy:                                             305.273614 eV
  Term symbol:  6 (-) A                                     R^2 =  5.59347e-14
  Excitation energy:                                             305.922925 eV
  Term symbol:  7 (-) A                                     R^2 =  4.60321e-14
  Excitation energy:                                             307.159832 eV
  Term symbol:  8 (-) A                                     R^2 =  3.04265e-14
  Excitation energy:                                             308.151376 eV
  Term symbol:  9 (-) A                                     R^2 =  6.94269e-14
  Excitation energy:                                             309.322097 eV
  Term symbol:  10 (-) A                                    R^2 =  2.77775e-13
  Excitation energy:                                             312.686246 eV
  Excited state 10 (A)                                             [converged]
  Term symbol:  11 (-) A                                    R^2 =  4.46887e-13
  Excitation energy:                                             314.130134 eV
  Excited state 11 (A)                                             [converged]
  Term symbol:  12 (-) A                                    R^2 =  2.67672e-13
  Excitation energy:                                             314.591120 eV
  Excited state 12 (A)                                             [converged]
  Term symbol:  13 (-) A                                    R^2 =  1.32186e-13
  Excitation energy:                                             314.928020 eV
  Excited state 13 (A)                                             [converged]
  Term symbol:  14 (-) A                                    R^2 =  5.47547e-13
  Excitation energy:                                             315.019092 eV
  Excited state 14 (A)                                             [converged]
  Term symbol:  15 (-) A                                    R^2 =  3.26432e-13
  Excitation energy:                                             315.402363 eV
  Excited state 15 (A)                                             [converged]
  Term symbol:  16 (-) A                                    R^2 =  3.76150e-13
  Excitation energy:                                             317.110075 eV
  Excited state 16 (A)                                             [converged]
  Term symbol:  17 (-) A                                    R^2 =  3.88999e-12
  Excitation energy:                                             318.070808 eV
  Excited state 17 (A)                                         [not converged]
  Term symbol:  18 (-) A                                    R^2 =  1.95265e-04
  Excitation energy:                                             331.117388 eV
  Excited state 18 (A)                                         [not converged]
  Term symbol:  19 (-) A                                    R^2 =  3.46717e-04
  Excitation energy:                                             331.123555 eV
  Excited state 19 (A)                                             [converged]
  Term symbol:  20 (-) A                                    R^2 =  7.13758e-08
  Excitation energy:                                             331.404823 eV
  Excited state 20 (A)                                             [converged]
  Term symbol:  21 (-) A                                    R^2 =  2.19810e-08
  Excitation energy:                                             331.576823 eV

                    Orbital Energies (a.u.)
 --------------------------------------------------------------

 Alpha MOs
 -- Occupied --
-26.564 -26.536 -26.522 -25.990 -11.739  -1.996  -1.889  -1.856
 -1.239  -1.135  -1.059  -1.052  -1.002  -0.883  -0.878  -0.861
 -0.836  -0.819  -0.350  -0.350  -0.333

 Beta MOs
 -- Occupied --
-26.564 -26.536 -26.522 -25.990 -11.739  -1.996  -1.889  -1.856
 -1.239  -1.135  -1.059  -1.052  -1.002  -0.883  -0.878  -0.861
 -0.836  -0.819  -0.350  -0.350  -0.333

          Ground-State Mulliken Net Atomic Charges

     Atom                 Charge (a.u.)    Spin (a.u.)
  --------------------------------------------------------
      1 C                     1.083891       0.000000
      2 F                    -0.055423       0.000000
      3 F                    -0.097841       0.000000
      4 F                    -0.818956       0.000000
      5 F                    -0.111671       0.000000
  --------------------------------------------------------
  Sum of atomic charges =     0.000000

                    Cartesian Multipole Moments
 -----------------------------------------------------------------
    Charge (ESU x 10^10)
                 0.0000
    Dipole Moment (Debye)
         X       4.5443      Y       8.4940      Z      -3.8975
       Tot      10.3918
    Quadrupole Moments (Debye-Ang)
        XX     -31.3305     XY      -0.4093     YY       6.5811
        XZ       5.0556     YZ      -4.2744     ZZ     -25.0229

 Total job time:  2008.48s(wall), 3295.73s(cpu)
        *  Thank you very much for using Q-Chem.  Have a nice day.  *
