 Q-Chem 4.3, Q-Chem, Inc., Pleasanton, CA (2015)
 Q-Chem 4.3.0 for Intel X86 Linux

User input:
--------------------------------------------------------------
$comment
XAS calculation for the 2b valence excited for water using cvs-adc(2)-x + 6-311+G* basis set
job 1 - determination of HF orbitals
$end

$molecule
0 1
6  -0.494074  3.018514  -0.213242
9  0.732309  2.431111  -0.059009
9  -1.13535  3.102654  0.789292
9  -1.432895  0.938325  0.663282
9  -1.099918  2.539376  -1.255185
$end

$rem
jobtype      sp
sym_ignore true
exchange     hf
basis        6-31G*
unrestricted true
$end

--------------------------------------------------------------

   14    -435.3149213016      6.16E-06 Convergence criterion met
 Total energy in the final basis set = -435.3149213016
 Total job time:  3.79s(wall), 14.50s(cpu)
        *  Thank you very much for using Q-Chem.  Have a nice day.  *
 Q-Chem 4.3, Q-Chem, Inc., Pleasanton, CA (2015)
 Q-Chem 4.3.0 for Intel X86 Linux

User input:
--------------------------------------------------------------

$comment
job3 - cvs-adc(2) calculation
$end

$molecule
read
$end

$rem
mem_total 3000
mem_static 1500
sym_ignore true
scf_guess read
method cvs-adc(2)
basis 6-31G*
ee_singlets 20
cc_rest_occ 5                  !only excitations from the lowest N orbitals
unrestricted  true
max_scf_cycles 200
$end
--------------------------------------------------------------

             Standard Nuclear Orientation (Angstroms)
    I     Atom           X                Y                Z
 ----------------------------------------------------------------
    1      C      -0.4940740000     3.0185140000    -0.2132420000
    2      F       0.7323090000     2.4311110000    -0.0590090000
    3      F      -1.1353500000     3.1026540000     0.7892920000
    4      F      -1.4328950000     0.9383250000     0.6632820000
    5      F      -1.0999180000     2.5393760000    -1.2551850000
 ----------------------------------------------------------------

    9    -435.3149220807      7.94E-09 Convergence criterion met
 Total energy in the final basis set = -435.3149220807
  Term symbol:  2 (-) A                                     R^2 =  8.24707e-14
  Excitation energy:                                             293.066998 eV
  Term symbol:  3 (-) A                                     R^2 =  7.17533e-14
  Excitation energy:                                             294.701770 eV
  Term symbol:  4 (-) A                                     R^2 =  3.23297e-14
  Excitation energy:                                             300.742659 eV
  Term symbol:  5 (-) A                                     R^2 =  5.85351e-14
  Excitation energy:                                             302.392044 eV
  Term symbol:  6 (-) A                                     R^2 =  1.25314e-13
  Excitation energy:                                             302.813901 eV
  Term symbol:  7 (-) A                                     R^2 =  1.21612e-13
  Excitation energy:                                             304.497290 eV
  Term symbol:  8 (-) A                                     R^2 =  1.03116e-13
  Excitation energy:                                             305.096047 eV
  Term symbol:  9 (-) A                                     R^2 =  1.48762e-13
  Excitation energy:                                             306.836777 eV
  Term symbol:  10 (-) A                                    R^2 =  5.47374e-13
  Excitation energy:                                             311.889612 eV
  Excited state 10 (A)                                             [converged]
  Term symbol:  11 (-) A                                    R^2 =  6.99315e-13
  Excitation energy:                                             313.217881 eV
  Excited state 11 (A)                                             [converged]
  Term symbol:  12 (-) A                                    R^2 =  5.46524e-13
  Excitation energy:                                             313.305200 eV
  Excited state 12 (A)                                             [converged]
  Term symbol:  13 (-) A                                    R^2 =  5.94578e-13
  Excitation energy:                                             313.455838 eV
  Excited state 13 (A)                                             [converged]
  Term symbol:  14 (-) A                                    R^2 =  3.80982e-13
  Excitation energy:                                             313.723468 eV
  Excited state 14 (A)                                             [converged]
  Term symbol:  15 (-) A                                    R^2 =  3.76463e-13
  Excitation energy:                                             314.182904 eV
  Excited state 15 (A)                                             [converged]
  Term symbol:  16 (-) A                                    R^2 =  2.36293e-10
  Excitation energy:                                             318.056452 eV
  Excited state 16 (A)                                             [converged]
  Term symbol:  17 (-) A                                    R^2 =  4.96424e-12
  Excitation energy:                                             318.627493 eV
  Excited state 17 (A)                                             [converged]
  Term symbol:  18 (-) A                                    R^2 =  1.05307e-08
  Excitation energy:                                             322.772794 eV
  Excited state 18 (A)                                             [converged]
  Term symbol:  19 (-) A                                    R^2 =  3.16172e-11
  Excitation energy:                                             322.800686 eV
  Excited state 19 (A)                                             [converged]
  Term symbol:  20 (-) A                                    R^2 =  5.98212e-07
  Excitation energy:                                             323.576355 eV
  Excited state 20 (A)                                             [converged]
  Term symbol:  21 (-) A                                    R^2 =  2.56431e-08
  Excitation energy:                                             323.576379 eV

                    Orbital Energies (a.u.)
 --------------------------------------------------------------

 Alpha MOs
 -- Occupied --
-26.549 -26.500 -26.479 -26.012 -11.721  -1.923  -1.805  -1.748
 -1.268  -1.094  -0.984  -0.975  -0.926  -0.827  -0.810  -0.801
 -0.779  -0.772  -0.375  -0.375  -0.344

 Beta MOs
 -- Occupied --
-26.549 -26.500 -26.479 -26.012 -11.721  -1.923  -1.805  -1.748
 -1.268  -1.094  -0.984  -0.975  -0.926  -0.827  -0.810  -0.801
 -0.779  -0.772  -0.375  -0.375  -0.344

          Ground-State Mulliken Net Atomic Charges

     Atom                 Charge (a.u.)    Spin (a.u.)
  --------------------------------------------------------
      1 C                     1.199827       0.000000
      2 F                    -0.236251       0.000000
      3 F                    -0.000160       0.000000
      4 F                    -0.795603       0.000000
      5 F                    -0.167814       0.000000
  --------------------------------------------------------
  Sum of atomic charges =     0.000000

                    Cartesian Multipole Moments
 -----------------------------------------------------------------
    Charge (ESU x 10^10)
                 0.0000
    Dipole Moment (Debye)
         X       2.8664      Y       8.1105      Z      -2.8239
       Tot       9.0538
    Quadrupole Moments (Debye-Ang)
        XX     -29.4690     XY      -2.2589     YY      10.5864
        XZ       3.4091     YZ      -3.6628     ZZ     -24.3618

 Total job time:  1854.75s(wall), 3072.09s(cpu)
        *  Thank you very much for using Q-Chem.  Have a nice day.  *
