 Q-Chem 4.3, Q-Chem, Inc., Pleasanton, CA (2015)
 Q-Chem 4.3.0 for Intel X86 Linux

User input:
--------------------------------------------------------------
$comment
XAS calculation for the 2b valence excited for water using cvs-adc(2)-x + 6-311+G* basis set
job 1 - determination of HF orbitals
$end

$molecule
0 1
6  -0.449434  3.00776  -0.216779
9  0.57789  2.336073  -0.006511
9  -1.130904  3.255694  0.767226
9  -1.265362  0.84513  0.578806
9  -1.133978  2.543754  -1.207709
$end

$rem
jobtype      sp
sym_ignore true
exchange     hf
basis        6-31G*
unrestricted true
$end

--------------------------------------------------------------

   13    -435.3297187161      8.11E-06 Convergence criterion met
 Total energy in the final basis set = -435.3297187161
 Total job time:  40.32s(wall), 16.37s(cpu)
        *  Thank you very much for using Q-Chem.  Have a nice day.  *
 Q-Chem 4.3, Q-Chem, Inc., Pleasanton, CA (2015)
 Q-Chem 4.3.0 for Intel X86 Linux

User input:
--------------------------------------------------------------

$comment
job3 - cvs-adc(2) calculation
$end

$molecule
read
$end

$rem
mem_total 3000
mem_static 1500
sym_ignore true
scf_guess read
method cvs-adc(2)
basis 6-31G*
ee_singlets 20
cc_rest_occ 5                  !only excitations from the lowest N orbitals
unrestricted  true
max_scf_cycles 200
$end
--------------------------------------------------------------

             Standard Nuclear Orientation (Angstroms)
    I     Atom           X                Y                Z
 ----------------------------------------------------------------
    1      C      -0.4494340000     3.0077600000    -0.2167790000
    2      F       0.5778900000     2.3360730000    -0.0065110000
    3      F      -1.1309040000     3.2556940000     0.7672260000
    4      F      -1.2653620000     0.8451300000     0.5788060000
    5      F      -1.1339780000     2.5437540000    -1.2077090000
 ----------------------------------------------------------------

    8    -435.3297189988      6.18E-09 Convergence criterion met
 Total energy in the final basis set = -435.3297189988
  Term symbol:  2 (-) A                                     R^2 =  2.03948e-05
  Excitation energy:                                             292.804114 eV
  Term symbol:  3 (-) A                                     R^2 =  1.12241e-05
  Excitation energy:                                             294.524357 eV
  Term symbol:  4 (-) A                                     R^2 =  1.11037e-06
  Excitation energy:                                             302.682800 eV
  Term symbol:  5 (-) A                                     R^2 =  2.54172e-06
  Excitation energy:                                             304.006879 eV
  Term symbol:  6 (-) A                                     R^2 =  2.78095e-06
  Excitation energy:                                             304.699310 eV
  Term symbol:  7 (-) A                                     R^2 =  9.94780e-06
  Excitation energy:                                             304.733322 eV
  Term symbol:  8 (-) A                                     R^2 =  1.63861e-07
  Excitation energy:                                             305.998262 eV
  Term symbol:  9 (-) A                                     R^2 =  1.84167e-05
  Excitation energy:                                             306.765945 eV
  Term symbol:  10 (-) A                                    R^2 =  1.16866e-04
  Excitation energy:                                             311.889030 eV
  Excited state 10 (A)                                         [not converged]
  Term symbol:  11 (-) A                                    R^2 =  1.24652e-06
  Excitation energy:                                             313.386409 eV
  Excited state 11 (A)                                         [not converged]
  Term symbol:  12 (-) A                                    R^2 =  3.92195e-05
  Excitation energy:                                             313.411679 eV
  Excited state 12 (A)                                             [converged]
  Term symbol:  13 (-) A                                    R^2 =  3.37422e-09
  Excitation energy:                                             313.521492 eV
  Excited state 13 (A)                                         [not converged]
  Term symbol:  14 (-) A                                    R^2 =  6.19752e-06
  Excitation energy:                                             313.924938 eV
  Excited state 14 (A)                                         [not converged]
  Term symbol:  15 (-) A                                    R^2 =  4.17222e-06
  Excitation energy:                                             314.140597 eV
  Excited state 15 (A)                                         [not converged]
  Term symbol:  16 (-) A                                    R^2 =  5.32731e-06
  Excitation energy:                                             318.948612 eV
  Excited state 16 (A)                                         [not converged]
  Term symbol:  17 (-) A                                    R^2 =  1.99427e-06
  Excitation energy:                                             319.435308 eV
  Excited state 17 (A)                                         [not converged]
  Term symbol:  18 (-) A                                    R^2 =  7.29575e-04
  Excitation energy:                                             322.851577 eV
  Excited state 18 (A)                                         [not converged]
  Term symbol:  19 (-) A                                    R^2 =  1.14756e-03
  Excitation energy:                                             322.864707 eV
  Excited state 19 (A)                                         [not converged]
  Term symbol:  20 (-) A                                    R^2 =  2.12345e-04
  Excitation energy:                                             323.181525 eV
  Excited state 20 (A)                                         [not converged]
  Term symbol:  21 (-) A                                    R^2 =  1.59248e-03
  Excitation energy:                                             323.181583 eV

                    Orbital Energies (a.u.)
 --------------------------------------------------------------

 Alpha MOs
 -- Occupied --
-26.531 -26.520 -26.499 -25.978 -11.729  -1.927  -1.829  -1.791
 -1.239  -1.100  -1.003  -0.995  -0.941  -0.842  -0.833  -0.810
 -0.792  -0.787  -0.346  -0.346  -0.333

 Beta MOs
 -- Occupied --
-26.531 -26.520 -26.499 -25.978 -11.729  -1.927  -1.829  -1.791
 -1.239  -1.100  -1.003  -0.995  -0.941  -0.842  -0.833  -0.810
 -0.792  -0.787  -0.346  -0.346  -0.333

          Ground-State Mulliken Net Atomic Charges

     Atom                 Charge (a.u.)    Spin (a.u.)
  --------------------------------------------------------
      1 C                     1.202001       0.000000
      2 F                    -0.108986       0.000000
      3 F                    -0.078846       0.000000
      4 F                    -0.854436       0.000000
      5 F                    -0.159733       0.000000
  --------------------------------------------------------
  Sum of atomic charges =     0.000000

                    Cartesian Multipole Moments
 -----------------------------------------------------------------
    Charge (ESU x 10^10)
                 0.0000
    Dipole Moment (Debye)
         X       3.3508      Y       8.8501      Z      -2.9599
       Tot       9.9153
    Quadrupole Moments (Debye-Ang)
        XX     -28.4286     XY      -0.7117     YY      12.4848
        XZ       2.9422     YZ      -4.2185     ZZ     -24.0959

 Total job time:  2089.56s(wall), 3348.60s(cpu)
        *  Thank you very much for using Q-Chem.  Have a nice day.  *
