 Q-Chem 4.3, Q-Chem, Inc., Pleasanton, CA (2015)
 Q-Chem 4.3.0 for Intel X86 Linux

User input:
--------------------------------------------------------------
$comment
XAS calculation for the 2b valence excited for water using cvs-adc(2)-x + 6-311+G* basis set
job 1 - determination of HF orbitals
$end

$molecule
0 1
6  -0.529094  2.954991  -0.199388
9  0.633608  2.597673  -0.091949
9  -1.038016  3.58474  0.644463
9  -1.489994  -0.039724  0.883326
9  -1.03913  2.885222  -1.30283
$end

$rem
jobtype      sp
sym_ignore true
exchange     hf
basis        6-31G*
unrestricted true
$end

--------------------------------------------------------------

   12    -435.3302362148      2.44E-06 Convergence criterion met
 Total energy in the final basis set = -435.3302362148
 Total job time:  3.22s(wall), 12.70s(cpu)
        *  Thank you very much for using Q-Chem.  Have a nice day.  *
 Q-Chem 4.3, Q-Chem, Inc., Pleasanton, CA (2015)
 Q-Chem 4.3.0 for Intel X86 Linux

User input:
--------------------------------------------------------------

$comment
job3 - cvs-adc(2) calculation
$end

$molecule
read
$end

$rem
mem_total 3000
mem_static 1500
sym_ignore true
scf_guess read
method cvs-adc(2)
basis 6-31G*
ee_singlets 20
cc_rest_occ 5                  !only excitations from the lowest N orbitals
unrestricted  true
max_scf_cycles 200
$end
--------------------------------------------------------------

             Standard Nuclear Orientation (Angstroms)
    I     Atom           X                Y                Z
 ----------------------------------------------------------------
    1      C      -0.5290940000     2.9549910000    -0.1993880000
    2      F       0.6336080000     2.5976730000    -0.0919490000
    3      F      -1.0380160000     3.5847400000     0.6444630000
    4      F      -1.4899940000    -0.0397240000     0.8833260000
    5      F      -1.0391300000     2.8852220000    -1.3028300000
 ----------------------------------------------------------------

    8    -435.3302363074      6.21E-09 Convergence criterion met
 Total energy in the final basis set = -435.3302363074
  Term symbol:  2 (-) A                                     R^2 =  6.12187e-14
  Excitation energy:                                             294.784275 eV
  Term symbol:  3 (-) A                                     R^2 =  3.84564e-14
  Excitation energy:                                             296.722808 eV
  Term symbol:  4 (-) A                                     R^2 =  9.54844e-14
  Excitation energy:                                             303.473415 eV
  Term symbol:  5 (-) A                                     R^2 =  5.11126e-14
  Excitation energy:                                             304.964204 eV
  Term symbol:  6 (-) A                                     R^2 =  6.34998e-14
  Excitation energy:                                             305.480780 eV
  Term symbol:  7 (-) A                                     R^2 =  6.53783e-14
  Excitation energy:                                             306.874653 eV
  Term symbol:  8 (-) A                                     R^2 =  6.10084e-14
  Excitation energy:                                             307.695576 eV
  Term symbol:  9 (-) A                                     R^2 =  9.21679e-14
  Excitation energy:                                             308.978475 eV
  Term symbol:  10 (-) A                                    R^2 =  5.76803e-14
  Excitation energy:                                             313.004846 eV
  Excited state 10 (A)                                             [converged]
  Term symbol:  11 (-) A                                    R^2 =  1.76868e-13
  Excitation energy:                                             314.178621 eV
  Excited state 11 (A)                                             [converged]
  Term symbol:  12 (-) A                                    R^2 =  5.74709e-13
  Excitation energy:                                             314.642760 eV
  Excited state 12 (A)                                             [converged]
  Term symbol:  13 (-) A                                    R^2 =  1.26945e-12
  Excitation energy:                                             314.819232 eV
  Excited state 13 (A)                                             [converged]
  Term symbol:  14 (-) A                                    R^2 =  3.09200e-13
  Excitation energy:                                             315.001340 eV
  Excited state 14 (A)                                             [converged]
  Term symbol:  15 (-) A                                    R^2 =  4.59317e-13
  Excitation energy:                                             315.061100 eV
  Excited state 15 (A)                                             [converged]
  Term symbol:  16 (-) A                                    R^2 =  7.24814e-13
  Excitation energy:                                             315.330077 eV
  Excited state 16 (A)                                             [converged]
  Term symbol:  17 (-) A                                    R^2 =  8.44889e-13
  Excitation energy:                                             316.213329 eV
  Excited state 17 (A)                                         [not converged]
  Term symbol:  18 (-) A                                    R^2 =  1.00628e-04
  Excitation energy:                                             327.191836 eV
  Excited state 18 (A)                                             [converged]
  Term symbol:  19 (-) A                                    R^2 =  2.76653e-08
  Excitation energy:                                             327.202774 eV
  Excited state 19 (A)                                             [converged]
  Term symbol:  20 (-) A                                    R^2 =  8.42002e-07
  Excitation energy:                                             331.627909 eV
  Excited state 20 (A)                                         [not converged]
  Term symbol:  21 (-) A                                    R^2 =  1.05474e-06
  Excitation energy:                                             331.809219 eV

                    Orbital Energies (a.u.)
 --------------------------------------------------------------

 Alpha MOs
 -- Occupied --
-26.599 -26.574 -26.570 -25.925 -11.779  -2.028  -1.922  -1.893
 -1.180  -1.169  -1.092  -1.087  -1.036  -0.916  -0.915  -0.894
 -0.877  -0.858  -0.292  -0.292  -0.272

 Beta MOs
 -- Occupied --
-26.599 -26.574 -26.570 -25.925 -11.779  -2.028  -1.922  -1.893
 -1.180  -1.169  -1.092  -1.087  -1.036  -0.916  -0.915  -0.894
 -0.877  -0.858  -0.292  -0.292  -0.272

          Ground-State Mulliken Net Atomic Charges

     Atom                 Charge (a.u.)    Spin (a.u.)
  --------------------------------------------------------
      1 C                     1.151040       0.000000
      2 F                    -0.107961       0.000000
      3 F                    -0.044440       0.000000
      4 F                    -0.888758       0.000000
      5 F                    -0.109881       0.000000
  --------------------------------------------------------
  Sum of atomic charges =     0.000000

                    Cartesian Multipole Moments
 -----------------------------------------------------------------
    Charge (ESU x 10^10)
                 0.0000
    Dipole Moment (Debye)
         X       3.9037      Y      12.6343      Z      -4.3471
       Tot      13.9198
    Quadrupole Moments (Debye-Ang)
        XX     -30.4735     XY      -7.0739     YY      15.0466
        XZ       5.7285     YZ      -1.8511     ZZ     -25.6005

 Total job time:  1849.73s(wall), 3089.45s(cpu)
        *  Thank you very much for using Q-Chem.  Have a nice day.  *
