 Q-Chem 4.3, Q-Chem, Inc., Pleasanton, CA (2015)
 Q-Chem 4.3.0 for Intel X86 Linux

User input:
--------------------------------------------------------------
$comment
XAS calculation for the 2b valence excited for water using cvs-adc(2)-x + 6-311+G* basis set
job 1 - determination of HF orbitals
$end

$molecule
0 1
6  -0.581885  2.90306  -0.149795
9  0.593041  2.443631  -0.029385
9  -1.096539  3.438873  0.70763
9  -1.306283  0.470291  0.676259
9  -1.106219  2.718447  -1.245423
$end

$rem
jobtype      sp
sym_ignore true
exchange     hf
basis        6-31G*
unrestricted true
$end

--------------------------------------------------------------

    9    -435.3792504938      8.85E-06 Convergence criterion met
 Total energy in the final basis set = -435.3792504938
 Total job time:  2.53s(wall), 10.00s(cpu)
        *  Thank you very much for using Q-Chem.  Have a nice day.  *
 Q-Chem 4.3, Q-Chem, Inc., Pleasanton, CA (2015)
 Q-Chem 4.3.0 for Intel X86 Linux

User input:
--------------------------------------------------------------

$comment
job3 - cvs-adc(2) calculation
$end

$molecule
read
$end

$rem
mem_total 3000
mem_static 1500
sym_ignore true
scf_guess read
method cvs-adc(2)
basis 6-31G*
ee_singlets 20
cc_rest_occ 5                  !only excitations from the lowest N orbitals
unrestricted  true
max_scf_cycles 200
$end
--------------------------------------------------------------

             Standard Nuclear Orientation (Angstroms)
    I     Atom           X                Y                Z
 ----------------------------------------------------------------
    1      C      -0.5818850000     2.9030600000    -0.1497950000
    2      F       0.5930410000     2.4436310000    -0.0293850000
    3      F      -1.0965390000     3.4388730000     0.7076300000
    4      F      -1.3062830000     0.4702910000     0.6762590000
    5      F      -1.1062190000     2.7184470000    -1.2454230000
 ----------------------------------------------------------------

    7    -435.3792507644      4.87E-09 Convergence criterion met
 Total energy in the final basis set = -435.3792507644
  Term symbol:  2 (-) A                                     R^2 =  2.48828e-05
  Excitation energy:                                             294.911631 eV
  Term symbol:  3 (-) A                                     R^2 =  9.70644e-06
  Excitation energy:                                             296.847436 eV
  Term symbol:  4 (-) A                                     R^2 =  1.63838e-05
  Excitation energy:                                             302.990331 eV
  Term symbol:  5 (-) A                                     R^2 =  5.32744e-06
  Excitation energy:                                             304.695278 eV
  Term symbol:  6 (-) A                                     R^2 =  5.43290e-06
  Excitation energy:                                             304.755153 eV
  Term symbol:  7 (-) A                                     R^2 =  1.46791e-05
  Excitation energy:                                             306.850917 eV
  Term symbol:  8 (-) A                                     R^2 =  1.29810e-05
  Excitation energy:                                             307.917717 eV
  Term symbol:  9 (-) A                                     R^2 =  2.54962e-05
  Excitation energy:                                             309.807190 eV
  Term symbol:  10 (-) A                                    R^2 =  7.85338e-05
  Excitation energy:                                             312.875742 eV
  Excited state 10 (A)                                         [not converged]
  Term symbol:  11 (-) A                                    R^2 =  1.23561e-05
  Excitation energy:                                             314.314806 eV
  Excited state 11 (A)                                         [not converged]
  Term symbol:  12 (-) A                                    R^2 =  6.23538e-06
  Excitation energy:                                             314.703548 eV
  Excited state 12 (A)                                         [not converged]
  Term symbol:  13 (-) A                                    R^2 =  6.56742e-06
  Excitation energy:                                             315.036824 eV
  Excited state 13 (A)                                         [not converged]
  Term symbol:  14 (-) A                                    R^2 =  7.13641e-05
  Excitation energy:                                             315.131985 eV
  Excited state 14 (A)                                         [not converged]
  Term symbol:  15 (-) A                                    R^2 =  2.21071e-05
  Excitation energy:                                             315.742717 eV
  Excited state 15 (A)                                         [not converged]
  Term symbol:  16 (-) A                                    R^2 =  3.44640e-05
  Excitation energy:                                             317.353086 eV
  Excited state 16 (A)                                         [not converged]
  Term symbol:  17 (-) A                                    R^2 =  8.19753e-05
  Excitation energy:                                             318.293730 eV
  Excited state 17 (A)                                         [not converged]
  Term symbol:  18 (-) A                                    R^2 =  5.68898e-02
  Excitation energy:                                             330.223459 eV
  Excited state 18 (A)                                         [not converged]
  Term symbol:  19 (-) A                                    R^2 =  2.70386e-05
  Excitation energy:                                             330.999011 eV
  Excited state 19 (A)                                             [converged]
  Term symbol:  20 (-) A                                    R^2 =  3.09061e-07
  Excitation energy:                                             331.201344 eV
  Excited state 20 (A)                                         [not converged]
  Term symbol:  21 (-) A                                    R^2 =  1.70978e-04
  Excitation energy:                                             332.550845 eV

                    Orbital Energies (a.u.)
 --------------------------------------------------------------

 Alpha MOs
 -- Occupied --
-26.585 -26.535 -26.512 -25.981 -11.747  -2.012  -1.886  -1.824
 -1.231  -1.143  -1.059  -1.048  -1.006  -0.880  -0.870  -0.864
 -0.824  -0.812  -0.342  -0.342  -0.328

 Beta MOs
 -- Occupied --
-26.585 -26.535 -26.512 -25.981 -11.747  -2.012  -1.886  -1.824
 -1.231  -1.143  -1.059  -1.048  -1.006  -0.880  -0.870  -0.864
 -0.824  -0.812  -0.342  -0.342  -0.328

          Ground-State Mulliken Net Atomic Charges

     Atom                 Charge (a.u.)    Spin (a.u.)
  --------------------------------------------------------
      1 C                     1.114821       0.000000
      2 F                    -0.163442       0.000000
      3 F                     0.005270       0.000000
      4 F                    -0.831808       0.000000
      5 F                    -0.124842       0.000000
  --------------------------------------------------------
  Sum of atomic charges =     0.000000

                    Cartesian Multipole Moments
 -----------------------------------------------------------------
    Charge (ESU x 10^10)
                 0.0000
    Dipole Moment (Debye)
         X       2.5319      Y       9.9990      Z      -2.9632
       Tot      10.7318
    Quadrupole Moments (Debye-Ang)
        XX     -27.8622     XY      -5.2489     YY      12.6839
        XZ       3.4479     YZ      -2.2114     ZZ     -24.2955

 Total job time:  2162.85s(wall), 3559.30s(cpu)
        *  Thank you very much for using Q-Chem.  Have a nice day.  *
