 Q-Chem 4.3, Q-Chem, Inc., Pleasanton, CA (2015)
 Q-Chem 4.3.0 for Intel X86 Linux

User input:
--------------------------------------------------------------
$comment
XAS calculation for the 2b valence excited for water using cvs-adc(2)-x + 6-311+G* basis set
job 1 - determination of HF orbitals
$end

$molecule
0 1
6  -0.511287  2.813686  -0.18097
9  0.696044  2.631797  -0.120277
9  -1.030512  3.519771  0.667608
9  -1.564735  0.091209  0.901663
9  -1.013967  2.863144  -1.334522
$end

$rem
jobtype      sp
sym_ignore true
exchange     hf
basis        6-31G*
unrestricted true
$end

--------------------------------------------------------------

   14    -435.3437983278      2.44E-06 Convergence criterion met
 Total energy in the final basis set = -435.3437983278
 Total job time:  3.66s(wall), 16.76s(cpu)
        *  Thank you very much for using Q-Chem.  Have a nice day.  *
 Q-Chem 4.3, Q-Chem, Inc., Pleasanton, CA (2015)
 Q-Chem 4.3.0 for Intel X86 Linux

User input:
--------------------------------------------------------------

$comment
job3 - cvs-adc(2) calculation
$end

$molecule
read
$end

$rem
mem_total 3000
mem_static 1500
sym_ignore true
scf_guess read
method cvs-adc(2)
basis 6-31G*
ee_singlets 20
cc_rest_occ 5                  !only excitations from the lowest N orbitals
unrestricted  true
max_scf_cycles 200
$end
--------------------------------------------------------------

             Standard Nuclear Orientation (Angstroms)
    I     Atom           X                Y                Z
 ----------------------------------------------------------------
    1      C      -0.5112870000     2.8136860000    -0.1809700000
    2      F       0.6960440000     2.6317970000    -0.1202770000
    3      F      -1.0305120000     3.5197710000     0.6676080000
    4      F      -1.5647350000     0.0912090000     0.9016630000
    5      F      -1.0139670000     2.8631440000    -1.3345220000
 ----------------------------------------------------------------

    8    -435.3437984546      9.05E-09 Convergence criterion met
 Total energy in the final basis set = -435.3437984546
  Term symbol:  2 (-) A                                     R^2 =  8.97265e-14
  Excitation energy:                                             294.404012 eV
  Term symbol:  3 (-) A                                     R^2 =  1.34004e-13
  Excitation energy:                                             296.301595 eV
  Term symbol:  4 (-) A                                     R^2 =  1.40356e-13
  Excitation energy:                                             303.265638 eV
  Term symbol:  5 (-) A                                     R^2 =  1.08974e-13
  Excitation energy:                                             304.384372 eV
  Term symbol:  6 (-) A                                     R^2 =  1.57325e-13
  Excitation energy:                                             305.051396 eV
  Term symbol:  7 (-) A                                     R^2 =  1.06372e-13
  Excitation energy:                                             305.081106 eV
  Term symbol:  8 (-) A                                     R^2 =  1.53885e-13
  Excitation energy:                                             306.404952 eV
  Term symbol:  9 (-) A                                     R^2 =  4.15245e-14
  Excitation energy:                                             307.148101 eV
  Term symbol:  10 (-) A                                    R^2 =  1.17836e-13
  Excitation energy:                                             313.023219 eV
  Excited state 10 (A)                                             [converged]
  Term symbol:  11 (-) A                                    R^2 =  2.50284e-13
  Excitation energy:                                             314.005828 eV
  Excited state 11 (A)                                             [converged]
  Term symbol:  12 (-) A                                    R^2 =  1.64269e-13
  Excitation energy:                                             314.303360 eV
  Excited state 12 (A)                                             [converged]
  Term symbol:  13 (-) A                                    R^2 =  1.92557e-13
  Excitation energy:                                             314.346493 eV
  Excited state 13 (A)                                             [converged]
  Term symbol:  14 (-) A                                    R^2 =  6.76569e-13
  Excitation energy:                                             314.520645 eV
  Excited state 14 (A)                                             [converged]
  Term symbol:  15 (-) A                                    R^2 =  4.83907e-13
  Excitation energy:                                             314.731333 eV
  Excited state 15 (A)                                             [converged]
  Term symbol:  16 (-) A                                    R^2 =  7.66335e-13
  Excitation energy:                                             314.843286 eV
  Excited state 16 (A)                                             [converged]
  Term symbol:  17 (-) A                                    R^2 =  1.26897e-12
  Excitation energy:                                             315.759876 eV
  Excited state 17 (A)                                             [converged]
  Term symbol:  18 (-) A                                    R^2 =  1.76998e-09
  Excitation energy:                                             326.143842 eV
  Excited state 18 (A)                                             [converged]
  Term symbol:  19 (-) A                                    R^2 =  8.46831e-12
  Excitation energy:                                             326.186493 eV
  Excited state 19 (A)                                         [not converged]
  Term symbol:  20 (-) A                                    R^2 =  1.05280e-05
  Excitation energy:                                             331.637031 eV
  Excited state 20 (A)                                         [not converged]
  Term symbol:  21 (-) A                                    R^2 =  3.26259e-05
  Excitation energy:                                             331.802579 eV

                    Orbital Energies (a.u.)
 --------------------------------------------------------------

 Alpha MOs
 -- Occupied --
-26.552 -26.551 -26.536 -26.014 -11.753  -1.969  -1.871  -1.847
 -1.250  -1.134  -1.045  -1.040  -0.986  -0.882  -0.878  -0.854
 -0.844  -0.826  -0.365  -0.365  -0.317

 Beta MOs
 -- Occupied --
-26.552 -26.551 -26.536 -26.014 -11.753  -1.969  -1.871  -1.847
 -1.250  -1.134  -1.045  -1.040  -0.986  -0.882  -0.878  -0.854
 -0.844  -0.826  -0.365  -0.365  -0.317

          Ground-State Mulliken Net Atomic Charges

     Atom                 Charge (a.u.)    Spin (a.u.)
  --------------------------------------------------------
      1 C                     1.147957       0.000000
      2 F                    -0.118960       0.000000
      3 F                    -0.113332       0.000000
      4 F                    -0.752074       0.000000
      5 F                    -0.163590       0.000000
  --------------------------------------------------------
  Sum of atomic charges =     0.000000

                    Cartesian Multipole Moments
 -----------------------------------------------------------------
    Charge (ESU x 10^10)
                 0.0000
    Dipole Moment (Debye)
         X       3.7911      Y       9.6186      Z      -3.6644
       Tot      10.9689
    Quadrupole Moments (Debye-Ang)
        XX     -30.6553     XY      -4.2011     YY       5.5456
        XZ       5.0717     YZ      -1.7951     ZZ     -25.8166

 Total job time:  2045.42s(wall), 3285.77s(cpu)
        *  Thank you very much for using Q-Chem.  Have a nice day.  *
