 Q-Chem 4.3, Q-Chem, Inc., Pleasanton, CA (2015)
 Q-Chem 4.3.0 for Intel X86 Linux

User input:
--------------------------------------------------------------
$comment
XAS calculation for the 2b valence excited for water using cvs-adc(2)-x + 6-311+G* basis set
job 1 - determination of HF orbitals
$end

$molecule
0 1
6  -0.547206  2.720868  -0.117834
9  0.698502  2.620002  -0.116662
9  -1.035183  3.514089  0.671885
9  -1.529013  0.178533  0.863644
9  -1.025186  2.851549  -1.345338
$end

$rem
jobtype      sp
sym_ignore true
exchange     hf
basis        6-31G*
unrestricted true
$end

--------------------------------------------------------------

   15    -435.3480874147      3.91E-06 Convergence criterion met
 Total energy in the final basis set = -435.3480874147
 Total job time:  4.82s(wall), 18.84s(cpu)
        *  Thank you very much for using Q-Chem.  Have a nice day.  *
 Q-Chem 4.3, Q-Chem, Inc., Pleasanton, CA (2015)
 Q-Chem 4.3.0 for Intel X86 Linux

User input:
--------------------------------------------------------------

$comment
job3 - cvs-adc(2) calculation
$end

$molecule
read
$end

$rem
mem_total 3000
mem_static 1500
sym_ignore true
scf_guess read
method cvs-adc(2)
basis 6-31G*
ee_singlets 20
cc_rest_occ 5                  !only excitations from the lowest N orbitals
unrestricted  true
max_scf_cycles 200
$end
--------------------------------------------------------------

             Standard Nuclear Orientation (Angstroms)
    I     Atom           X                Y                Z
 ----------------------------------------------------------------
    1      C      -0.5472060000     2.7208680000    -0.1178340000
    2      F       0.6985020000     2.6200020000    -0.1166620000
    3      F      -1.0351830000     3.5140890000     0.6718850000
    4      F      -1.5290130000     0.1785330000     0.8636440000
    5      F      -1.0251860000     2.8515490000    -1.3453380000
 ----------------------------------------------------------------

    7    -435.3480875825      7.80E-09 Convergence criterion met
 Total energy in the final basis set = -435.3480875825
  Term symbol:  2 (-) A                                     R^2 =  5.97361e-14
  Excitation energy:                                             294.122478 eV
  Term symbol:  3 (-) A                                     R^2 =  5.35864e-14
  Excitation energy:                                             295.946504 eV
  Term symbol:  4 (-) A                                     R^2 =  1.55285e-13
  Excitation energy:                                             301.834396 eV
  Term symbol:  5 (-) A                                     R^2 =  2.27661e-13
  Excitation energy:                                             303.660420 eV
  Term symbol:  6 (-) A                                     R^2 =  1.40322e-13
  Excitation energy:                                             303.936392 eV
  Term symbol:  7 (-) A                                     R^2 =  2.08892e-13
  Excitation energy:                                             304.468511 eV
  Term symbol:  8 (-) A                                     R^2 =  1.29171e-13
  Excitation energy:                                             305.620827 eV
  Term symbol:  9 (-) A                                     R^2 =  8.60106e-14
  Excitation energy:                                             306.372926 eV
  Term symbol:  10 (-) A                                    R^2 =  4.24004e-13
  Excitation energy:                                             313.211327 eV
  Excited state 10 (A)                                             [converged]
  Term symbol:  11 (-) A                                    R^2 =  1.26191e-13
  Excitation energy:                                             313.779707 eV
  Excited state 11 (A)                                             [converged]
  Term symbol:  12 (-) A                                    R^2 =  2.35578e-13
  Excitation energy:                                             313.911481 eV
  Excited state 12 (A)                                             [converged]
  Term symbol:  13 (-) A                                    R^2 =  2.09378e-13
  Excitation energy:                                             314.004594 eV
  Excited state 13 (A)                                             [converged]
  Term symbol:  14 (-) A                                    R^2 =  5.59095e-13
  Excitation energy:                                             314.142571 eV
  Excited state 14 (A)                                             [converged]
  Term symbol:  15 (-) A                                    R^2 =  3.08142e-13
  Excitation energy:                                             314.250179 eV
  Excited state 15 (A)                                             [converged]
  Term symbol:  16 (-) A                                    R^2 =  1.54606e-13
  Excitation energy:                                             314.489260 eV
  Excited state 16 (A)                                             [converged]
  Term symbol:  17 (-) A                                    R^2 =  3.50768e-13
  Excitation energy:                                             315.372620 eV
  Excited state 17 (A)                                             [converged]
  Term symbol:  18 (-) A                                    R^2 =  1.21615e-12
  Excitation energy:                                             325.743829 eV
  Excited state 18 (A)                                             [converged]
  Term symbol:  19 (-) A                                    R^2 =  2.05524e-12
  Excitation energy:                                             325.825168 eV
  Excited state 19 (A)                                         [not converged]
  Term symbol:  20 (-) A                                    R^2 =  1.43924e-05
  Excitation energy:                                             331.133304 eV
  Excited state 20 (A)                                         [not converged]
  Term symbol:  21 (-) A                                    R^2 =  1.00211e-03
  Excitation energy:                                             331.280201 eV

                    Orbital Energies (a.u.)
 --------------------------------------------------------------

 Alpha MOs
 -- Occupied --
-26.529 -26.518 -26.487 -26.101 -11.728  -1.928  -1.834  -1.778
 -1.320  -1.104  -1.005  -0.992  -0.946  -0.852  -0.834  -0.823
 -0.798  -0.787  -0.438  -0.437  -0.364

 Beta MOs
 -- Occupied --
-26.529 -26.518 -26.487 -26.101 -11.728  -1.928  -1.834  -1.778
 -1.320  -1.104  -1.005  -0.992  -0.946  -0.852  -0.834  -0.823
 -0.798  -0.787  -0.438  -0.437  -0.364

          Ground-State Mulliken Net Atomic Charges

     Atom                 Charge (a.u.)    Spin (a.u.)
  --------------------------------------------------------
      1 C                     1.132385       0.000000
      2 F                    -0.159315       0.000000
      3 F                    -0.122891       0.000000
      4 F                    -0.615553       0.000000
      5 F                    -0.234627       0.000000
  --------------------------------------------------------
  Sum of atomic charges =     0.000000

                    Cartesian Multipole Moments
 -----------------------------------------------------------------
    Charge (ESU x 10^10)
                 0.0000
    Dipole Moment (Debye)
         X       2.8930      Y       7.3331      Z      -2.3870
       Tot       8.2366
    Quadrupole Moments (Debye-Ang)
        XX     -29.2687     XY      -3.1005     YY      -1.3482
        XZ       3.4614     YZ      -0.3115     ZZ     -25.8200

 Total job time:  1993.56s(wall), 3209.80s(cpu)
        *  Thank you very much for using Q-Chem.  Have a nice day.  *
