 Q-Chem 4.3, Q-Chem, Inc., Pleasanton, CA (2015)
 Q-Chem 4.3.0 for Intel X86 Linux

User input:
--------------------------------------------------------------
$comment
XAS calculation for the 2b valence excited for water using cvs-adc(2)-x + 6-311+G* basis set
job 1 - determination of HF orbitals
$end

$molecule
0 1
6  -0.640749  2.724543  -0.108177
9  0.496884  2.434647  0.015236
9  -1.032231  3.711079  0.637208
9  -1.203323  0.162504  0.672124
9  -1.100581  2.854703  -1.252591
$end

$rem
jobtype      sp
sym_ignore true
exchange     hf
basis        6-31G*
unrestricted true
$end

--------------------------------------------------------------

   11    -435.3647178772      7.75E-06 Convergence criterion met
 Total energy in the final basis set = -435.3647178772
 Total job time:  2.90s(wall), 14.49s(cpu)
        *  Thank you very much for using Q-Chem.  Have a nice day.  *
 Q-Chem 4.3, Q-Chem, Inc., Pleasanton, CA (2015)
 Q-Chem 4.3.0 for Intel X86 Linux

User input:
--------------------------------------------------------------

$comment
job3 - cvs-adc(2) calculation
$end

$molecule
read
$end

$rem
mem_total 3000
mem_static 1500
sym_ignore true
scf_guess read
method cvs-adc(2)
basis 6-31G*
ee_singlets 20
cc_rest_occ 5                  !only excitations from the lowest N orbitals
unrestricted  true
max_scf_cycles 200
$end
--------------------------------------------------------------

             Standard Nuclear Orientation (Angstroms)
    I     Atom           X                Y                Z
 ----------------------------------------------------------------
    1      C      -0.6407490000     2.7245430000    -0.1081770000
    2      F       0.4968840000     2.4346470000     0.0152360000
    3      F      -1.0322310000     3.7110790000     0.6372080000
    4      F      -1.2033230000     0.1625040000     0.6721240000
    5      F      -1.1005810000     2.8547030000    -1.2525910000
 ----------------------------------------------------------------

    8    -435.3647182598      8.14E-09 Convergence criterion met
 Total energy in the final basis set = -435.3647182598
  Term symbol:  2 (-) A                                     R^2 =  9.29490e-14
  Excitation energy:                                             294.163563 eV
  Term symbol:  3 (-) A                                     R^2 =  8.67195e-14
  Excitation energy:                                             296.068842 eV
  Term symbol:  4 (-) A                                     R^2 =  6.87685e-14
  Excitation energy:                                             302.536272 eV
  Term symbol:  5 (-) A                                     R^2 =  1.62474e-13
  Excitation energy:                                             304.169054 eV
  Term symbol:  6 (-) A                                     R^2 =  7.60651e-14
  Excitation energy:                                             304.669525 eV
  Term symbol:  7 (-) A                                     R^2 =  1.03933e-13
  Excitation energy:                                             306.007811 eV
  Term symbol:  8 (-) A                                     R^2 =  8.31515e-14
  Excitation energy:                                             306.124006 eV
  Term symbol:  9 (-) A                                     R^2 =  1.37246e-13
  Excitation energy:                                             307.787472 eV
  Term symbol:  10 (-) A                                    R^2 =  9.04915e-14
  Excitation energy:                                             313.184614 eV
  Excited state 10 (A)                                             [converged]
  Term symbol:  11 (-) A                                    R^2 =  1.16862e-13
  Excitation energy:                                             313.876551 eV
  Excited state 11 (A)                                             [converged]
  Term symbol:  12 (-) A                                    R^2 =  9.40419e-14
  Excitation energy:                                             314.031749 eV
  Excited state 12 (A)                                             [converged]
  Term symbol:  13 (-) A                                    R^2 =  2.26170e-13
  Excitation energy:                                             314.077185 eV
  Excited state 13 (A)                                             [converged]
  Term symbol:  14 (-) A                                    R^2 =  3.40491e-13
  Excitation energy:                                             314.448381 eV
  Excited state 14 (A)                                             [converged]
  Term symbol:  15 (-) A                                    R^2 =  1.64172e-13
  Excitation energy:                                             314.673009 eV
  Excited state 15 (A)                                             [converged]
  Term symbol:  16 (-) A                                    R^2 =  1.69772e-13
  Excitation energy:                                             315.257074 eV
  Excited state 16 (A)                                             [converged]
  Term symbol:  17 (-) A                                    R^2 =  4.17490e-13
  Excitation energy:                                             316.360815 eV
  Excited state 17 (A)                                             [converged]
  Term symbol:  18 (-) A                                    R^2 =  6.86583e-13
  Excitation energy:                                             327.157694 eV
  Excited state 18 (A)                                             [converged]
  Term symbol:  19 (-) A                                    R^2 =  1.10473e-12
  Excitation energy:                                             327.214731 eV
  Excited state 19 (A)                                             [converged]
  Term symbol:  20 (-) A                                    R^2 =  8.16211e-07
  Excitation energy:                                             331.112381 eV
  Excited state 20 (A)                                             [converged]
  Term symbol:  21 (-) A                                    R^2 =  5.07215e-07
  Excitation energy:                                             331.289680 eV

                    Orbital Energies (a.u.)
 --------------------------------------------------------------

 Alpha MOs
 -- Occupied --
-26.530 -26.513 -26.494 -26.086 -11.726  -1.951  -1.847  -1.794
 -1.311  -1.109  -1.018  -1.007  -0.959  -0.859  -0.840  -0.826
 -0.805  -0.790  -0.427  -0.427  -0.370

 Beta MOs
 -- Occupied --
-26.530 -26.513 -26.494 -26.086 -11.726  -1.951  -1.847  -1.794
 -1.311  -1.109  -1.018  -1.007  -0.959  -0.859  -0.840  -0.826
 -0.805  -0.790  -0.427  -0.427  -0.370

          Ground-State Mulliken Net Atomic Charges

     Atom                 Charge (a.u.)    Spin (a.u.)
  --------------------------------------------------------
      1 C                     1.095823       0.000000
      2 F                    -0.064255       0.000000
      3 F                    -0.223939       0.000000
      4 F                    -0.652552       0.000000
      5 F                    -0.155076       0.000000
  --------------------------------------------------------
  Sum of atomic charges =     0.000000

                    Cartesian Multipole Moments
 -----------------------------------------------------------------
    Charge (ESU x 10^10)
                 0.0000
    Dipole Moment (Debye)
         X       2.0165      Y       7.4822      Z      -2.4641
       Tot       8.1315
    Quadrupole Moments (Debye-Ang)
        XX     -26.4205     XY      -3.4412     YY      -2.2107
        XZ       2.6626     YZ      -1.8468     ZZ     -24.6742

 Total job time:  2002.30s(wall), 3235.44s(cpu)
        *  Thank you very much for using Q-Chem.  Have a nice day.  *
