 Q-Chem 4.3, Q-Chem, Inc., Pleasanton, CA (2015)
 Q-Chem 4.3.0 for Intel X86 Linux

User input:
--------------------------------------------------------------
$comment
XAS calculation for the 2b valence excited for water using cvs-adc(2)-x + 6-311+G* basis set
job 1 - determination of HF orbitals
$end

$molecule
0 1
6  -0.366093  3.224975  -0.359943
9  0.697211  2.638084  -0.126194
9  -1.022413  3.509487  0.657097
9  -1.675926  -0.164326  1.016907
9  -1.000879  2.864  -1.318929
$end

$rem
jobtype      sp
sym_ignore true
exchange     hf
basis        6-31G*
unrestricted true
$end

--------------------------------------------------------------

   14    -435.2635643860      2.67E-06 Convergence criterion met
 Total energy in the final basis set = -435.2635643860
 Total job time:  3.71s(wall), 16.50s(cpu)
        *  Thank you very much for using Q-Chem.  Have a nice day.  *
 Q-Chem 4.3, Q-Chem, Inc., Pleasanton, CA (2015)
 Q-Chem 4.3.0 for Intel X86 Linux

User input:
--------------------------------------------------------------

$comment
job3 - cvs-adc(2) calculation
$end

$molecule
read
$end

$rem
mem_total 3000
mem_static 1500
sym_ignore true
scf_guess read
method cvs-adc(2)
basis 6-31G*
ee_singlets 20
cc_rest_occ 5                  !only excitations from the lowest N orbitals
unrestricted  true
max_scf_cycles 200
$end
--------------------------------------------------------------

             Standard Nuclear Orientation (Angstroms)
    I     Atom           X                Y                Z
 ----------------------------------------------------------------
    1      C      -0.3660930000     3.2249750000    -0.3599430000
    2      F       0.6972110000     2.6380840000    -0.1261940000
    3      F      -1.0224130000     3.5094870000     0.6570970000
    4      F      -1.6759260000    -0.1643260000     1.0169070000
    5      F      -1.0008790000     2.8640000000    -1.3189290000
 ----------------------------------------------------------------

    9    -435.2635642007      5.31E-09 Convergence criterion met
 Total energy in the final basis set = -435.2635642007
  Term symbol:  2 (-) A                                     R^2 =  1.48060e-11
  Excitation energy:                                             293.187099 eV
  Term symbol:  3 (-) A                                     R^2 =  2.16400e-10
  Excitation energy:                                             295.042769 eV
  Term symbol:  4 (-) A                                     R^2 =  1.54922e-11
  Excitation energy:                                             304.323781 eV
  Term symbol:  5 (-) A                                     R^2 =  4.54847e-11
  Excitation energy:                                             304.421311 eV
  Term symbol:  6 (-) A                                     R^2 =  2.81741e-12
  Excitation energy:                                             305.395818 eV
  Term symbol:  7 (-) A                                     R^2 =  7.52973e-12
  Excitation energy:                                             306.279233 eV
  Term symbol:  8 (-) A                                     R^2 =  1.96300e-11
  Excitation energy:                                             306.393187 eV
  Term symbol:  9 (-) A                                     R^2 =  3.06454e-11
  Excitation energy:                                             307.379007 eV
  Term symbol:  10 (-) A                                    R^2 =  1.30129e-10
  Excitation energy:                                             312.876512 eV
  Excited state 10 (A)                                             [converged]
  Term symbol:  11 (-) A                                    R^2 =  1.16733e-10
  Excitation energy:                                             314.230160 eV
  Excited state 11 (A)                                             [converged]
  Term symbol:  12 (-) A                                    R^2 =  3.75699e-11
  Excitation energy:                                             314.366422 eV
  Excited state 12 (A)                                             [converged]
  Term symbol:  13 (-) A                                    R^2 =  1.29521e-10
  Excitation energy:                                             314.488767 eV
  Excited state 13 (A)                                             [converged]
  Term symbol:  14 (-) A                                    R^2 =  1.28802e-11
  Excitation energy:                                             314.837281 eV
  Excited state 14 (A)                                             [converged]
  Term symbol:  15 (-) A                                    R^2 =  2.21126e-11
  Excitation energy:                                             315.009546 eV
  Excited state 15 (A)                                             [converged]
  Term symbol:  16 (-) A                                    R^2 =  7.67845e-11
  Excitation energy:                                             315.385377 eV
  Excited state 16 (A)                                             [converged]
  Term symbol:  17 (-) A                                    R^2 =  2.06917e-10
  Excitation energy:                                             316.281735 eV
  Excited state 17 (A)                                         [not converged]
  Term symbol:  18 (-) A                                    R^2 =  6.25920e-02
  Excitation energy:                                             319.967587 eV
  Excited state 18 (A)                                         [not converged]
  Term symbol:  19 (-) A                                    R^2 =  3.16399e-01
  Excitation energy:                                             320.831034 eV
  Excited state 19 (A)                                         [not converged]
  Term symbol:  20 (-) A                                    R^2 =  6.97594e-06
  Excitation energy:                                             332.313021 eV
  Excited state 20 (A)                                         [not converged]
  Term symbol:  21 (-) A                                    R^2 =  4.08269e-06
  Excitation energy:                                             332.470559 eV

                    Orbital Energies (a.u.)
 --------------------------------------------------------------

 Alpha MOs
 -- Occupied --
-26.623 -26.606 -26.600 -25.837 -11.822  -2.035  -1.930  -1.906
 -1.191  -1.107  -1.103  -1.098  -1.048  -0.935  -0.932  -0.907
 -0.894  -0.881  -0.218  -0.217  -0.217

 Beta MOs
 -- Occupied --
-26.623 -26.606 -26.600 -25.837 -11.822  -2.035  -1.930  -1.906
 -1.191  -1.107  -1.103  -1.098  -1.048  -0.935  -0.932  -0.907
 -0.894  -0.881  -0.218  -0.217  -0.217

          Ground-State Mulliken Net Atomic Charges

     Atom                 Charge (a.u.)    Spin (a.u.)
  --------------------------------------------------------
      1 C                     1.231777       0.000000
      2 F                    -0.090372       0.000000
      3 F                    -0.094366       0.000000
      4 F                    -0.993257       0.000000
      5 F                    -0.053781       0.000000
  --------------------------------------------------------
  Sum of atomic charges =     0.000000

                    Cartesian Multipole Moments
 -----------------------------------------------------------------
    Charge (ESU x 10^10)
                 0.0000
    Dipole Moment (Debye)
         X       6.1711      Y      16.0905      Z      -6.6720
       Tot      18.4798
    Quadrupole Moments (Debye-Ang)
        XX     -34.8724     XY      -6.6846     YY      27.8332
        XZ       8.7283     YZ      -5.5004     ZZ     -26.3407

 Total job time:  2195.95s(wall), 3582.61s(cpu)
        *  Thank you very much for using Q-Chem.  Have a nice day.  *
