 Q-Chem 4.3, Q-Chem, Inc., Pleasanton, CA (2015)
 Q-Chem 4.3.0 for Intel X86 Linux

User input:
--------------------------------------------------------------
$comment
XAS calculation for the 2b valence excited for water using cvs-adc(2)-x + 6-311+G* basis set
job 1 - determination of HF orbitals
$end

$molecule
0 1
6  -0.389509  2.658498  -0.2379
9  0.847335  2.91348  -0.254321
9  -1.02986  3.193413  0.740362
9  -1.925901  0.324231  1.062178
9  -0.917322  2.848801  -1.39638
$end

$rem
jobtype      sp
sym_ignore true
exchange     hf
basis        6-31G*
unrestricted true
$end

--------------------------------------------------------------

   13    -435.3171810977      7.62E-06 Convergence criterion met
 Total energy in the final basis set = -435.3171810977
 Total job time:  3.49s(wall), 14.63s(cpu)
        *  Thank you very much for using Q-Chem.  Have a nice day.  *
 Q-Chem 4.3, Q-Chem, Inc., Pleasanton, CA (2015)
 Q-Chem 4.3.0 for Intel X86 Linux

User input:
--------------------------------------------------------------

$comment
job3 - cvs-adc(2) calculation
$end

$molecule
read
$end

$rem
mem_total 3000
mem_static 1500
sym_ignore true
scf_guess read
method cvs-adc(2)
basis 6-31G*
ee_singlets 20
cc_rest_occ 5                  !only excitations from the lowest N orbitals
unrestricted  true
max_scf_cycles 200
$end
--------------------------------------------------------------

             Standard Nuclear Orientation (Angstroms)
    I     Atom           X                Y                Z
 ----------------------------------------------------------------
    1      C      -0.3895090000     2.6584980000    -0.2379000000
    2      F       0.8473350000     2.9134800000    -0.2543210000
    3      F      -1.0298600000     3.1934130000     0.7403620000
    4      F      -1.9259010000     0.3242310000     1.0621780000
    5      F      -0.9173220000     2.8488010000    -1.3963800000
 ----------------------------------------------------------------

    9    -435.3171820126      4.68E-09 Convergence criterion met
 Total energy in the final basis set = -435.3171820126
  Term symbol:  2 (-) A                                     R^2 =  1.21974e-12
  Excitation energy:                                             293.965240 eV
  Term symbol:  3 (-) A                                     R^2 =  1.75756e-12
  Excitation energy:                                             295.691117 eV
  Term symbol:  4 (-) A                                     R^2 =  6.06069e-13
  Excitation energy:                                             302.366496 eV
  Term symbol:  5 (-) A                                     R^2 =  1.12927e-12
  Excitation energy:                                             302.698574 eV
  Term symbol:  6 (-) A                                     R^2 =  1.15827e-12
  Excitation energy:                                             303.132817 eV
  Term symbol:  7 (-) A                                     R^2 =  2.05048e-13
  Excitation energy:                                             304.377548 eV
  Term symbol:  8 (-) A                                     R^2 =  1.41946e-12
  Excitation energy:                                             304.701139 eV
  Term symbol:  9 (-) A                                     R^2 =  1.39678e-12
  Excitation energy:                                             305.139221 eV
  Term symbol:  10 (-) A                                    R^2 =  1.67856e-12
  Excitation energy:                                             312.887897 eV
  Excited state 10 (A)                                             [converged]
  Term symbol:  11 (-) A                                    R^2 =  8.50325e-13
  Excitation energy:                                             313.239539 eV
  Excited state 11 (A)                                             [converged]
  Term symbol:  12 (-) A                                    R^2 =  9.30570e-13
  Excitation energy:                                             313.459419 eV
  Excited state 12 (A)                                             [converged]
  Term symbol:  13 (-) A                                    R^2 =  4.01062e-13
  Excitation energy:                                             313.619212 eV
  Excited state 13 (A)                                             [converged]
  Term symbol:  14 (-) A                                    R^2 =  4.48807e-13
  Excitation energy:                                             313.980934 eV
  Excited state 14 (A)                                             [converged]
  Term symbol:  15 (-) A                                    R^2 =  2.40492e-12
  Excitation energy:                                             314.019323 eV
  Excited state 15 (A)                                             [converged]
  Term symbol:  16 (-) A                                    R^2 =  1.23030e-12
  Excitation energy:                                             314.102466 eV
  Excited state 16 (A)                                             [converged]
  Term symbol:  17 (-) A                                    R^2 =  7.49277e-13
  Excitation energy:                                             314.924005 eV
  Excited state 17 (A)                                             [converged]
  Term symbol:  18 (-) A                                    R^2 =  1.63352e-10
  Excitation energy:                                             323.457504 eV
  Excited state 18 (A)                                             [converged]
  Term symbol:  19 (-) A                                    R^2 =  2.89447e-10
  Excitation energy:                                             323.550418 eV
  Excited state 19 (A)                                         [not converged]
  Term symbol:  20 (-) A                                    R^2 =  1.22459e-02
  Excitation energy:                                             331.140320 eV
  Excited state 20 (A)                                         [not converged]
  Term symbol:  21 (-) A                                    R^2 =  1.21168e-02
  Excitation energy:                                             331.214750 eV

                    Orbital Energies (a.u.)
 --------------------------------------------------------------

 Alpha MOs
 -- Occupied --
-26.527 -26.512 -26.500 -26.084 -11.731  -1.911  -1.811  -1.796
 -1.306  -1.101  -0.990  -0.989  -0.938  -0.846  -0.840  -0.815
 -0.805  -0.792  -0.424  -0.424  -0.343

 Beta MOs
 -- Occupied --
-26.527 -26.512 -26.500 -26.084 -11.731  -1.911  -1.811  -1.796
 -1.306  -1.101  -0.990  -0.989  -0.938  -0.846  -0.840  -0.815
 -0.805  -0.792  -0.424  -0.424  -0.343

          Ground-State Mulliken Net Atomic Charges

     Atom                 Charge (a.u.)    Spin (a.u.)
  --------------------------------------------------------
      1 C                     1.163269       0.000000
      2 F                    -0.177427       0.000000
      3 F                    -0.169645       0.000000
      4 F                    -0.623642       0.000000
      5 F                    -0.192554       0.000000
  --------------------------------------------------------
  Sum of atomic charges =     0.000000

                    Cartesian Multipole Moments
 -----------------------------------------------------------------
    Charge (ESU x 10^10)
                 0.0000
    Dipole Moment (Debye)
         X       4.6297      Y       6.6221      Z      -3.7482
       Tot       8.9070
    Quadrupole Moments (Debye-Ang)
        XX     -33.9276     XY      -0.7157     YY      -3.4680
        XZ       6.0727     YZ      -2.8069     ZZ     -26.6321

 Total job time:  1997.84s(wall), 3245.95s(cpu)
        *  Thank you very much for using Q-Chem.  Have a nice day.  *
