 Q-Chem 4.3, Q-Chem, Inc., Pleasanton, CA (2015)
 Q-Chem 4.3.0 for Intel X86 Linux

User input:
--------------------------------------------------------------
$comment
XAS calculation for the 2b valence excited for water using cvs-adc(2)-x + 6-311+G* basis set
job 1 - determination of HF orbitals
$end

$molecule
0 1
6  -0.455328  2.97985  -0.256069
9  0.679757  2.423968  -0.055821
9  -1.11884  3.16354  0.773328
9  -1.420748  0.821443  0.677038
9  -1.077596  2.580765  -1.234747
$end

$rem
jobtype      sp
sym_ignore true
exchange     hf
basis        6-31G*
unrestricted true
$end

--------------------------------------------------------------

   12    -435.3414359780      8.51E-06 Convergence criterion met
 Total energy in the final basis set = -435.3414359780
 Total job time:  3.27s(wall), 14.12s(cpu)
        *  Thank you very much for using Q-Chem.  Have a nice day.  *
 Q-Chem 4.3, Q-Chem, Inc., Pleasanton, CA (2015)
 Q-Chem 4.3.0 for Intel X86 Linux

User input:
--------------------------------------------------------------

$comment
job3 - cvs-adc(2) calculation
$end

$molecule
read
$end

$rem
mem_total 3000
mem_static 1500
sym_ignore true
scf_guess read
method cvs-adc(2)
basis 6-31G*
ee_singlets 20
cc_rest_occ 5                  !only excitations from the lowest N orbitals
unrestricted  true
max_scf_cycles 200
$end
--------------------------------------------------------------

             Standard Nuclear Orientation (Angstroms)
    I     Atom           X                Y                Z
 ----------------------------------------------------------------
    1      C      -0.4553280000     2.9798500000    -0.2560690000
    2      F       0.6797570000     2.4239680000    -0.0558210000
    3      F      -1.1188400000     3.1635400000     0.7733280000
    4      F      -1.4207480000     0.8214430000     0.6770380000
    5      F      -1.0775960000     2.5807650000    -1.2347470000
 ----------------------------------------------------------------

   11    -435.3414367479      4.16E-09 Convergence criterion met
 Total energy in the final basis set = -435.3414367479
  Term symbol:  2 (-) A                                     R^2 =  8.13930e-11
  Excitation energy:                                             293.088316 eV
  Term symbol:  3 (-) A                                     R^2 =  1.47766e-10
  Excitation energy:                                             294.852021 eV
  Term symbol:  4 (-) A                                     R^2 =  5.13491e-11
  Excitation energy:                                             303.092198 eV
  Term symbol:  5 (-) A                                     R^2 =  8.53939e-12
  Excitation energy:                                             304.346611 eV
  Term symbol:  6 (-) A                                     R^2 =  1.68833e-10
  Excitation energy:                                             304.547102 eV
  Term symbol:  7 (-) A                                     R^2 =  1.49319e-11
  Excitation energy:                                             305.185858 eV
  Term symbol:  8 (-) A                                     R^2 =  8.29841e-11
  Excitation energy:                                             306.343532 eV
  Term symbol:  9 (-) A                                     R^2 =  3.84151e-11
  Excitation energy:                                             306.515249 eV
  Term symbol:  10 (-) A                                    R^2 =  1.33054e-10
  Excitation energy:                                             312.160268 eV
  Excited state 10 (A)                                             [converged]
  Term symbol:  11 (-) A                                    R^2 =  1.35255e-10
  Excitation energy:                                             313.657190 eV
  Excited state 11 (A)                                             [converged]
  Term symbol:  12 (-) A                                    R^2 =  1.93124e-10
  Excitation energy:                                             313.801427 eV
  Excited state 12 (A)                                             [converged]
  Term symbol:  13 (-) A                                    R^2 =  2.25593e-11
  Excitation energy:                                             313.904209 eV
  Excited state 13 (A)                                             [converged]
  Term symbol:  14 (-) A                                    R^2 =  1.60385e-10
  Excitation energy:                                             314.312509 eV
  Excited state 14 (A)                                             [converged]
  Term symbol:  15 (-) A                                    R^2 =  2.59971e-11
  Excitation energy:                                             314.451804 eV
  Excited state 15 (A)                                             [converged]
  Term symbol:  16 (-) A                                    R^2 =  2.78295e-10
  Excitation energy:                                             318.414821 eV
  Excited state 16 (A)                                             [converged]
  Term symbol:  17 (-) A                                    R^2 =  7.10909e-11
  Excitation energy:                                             318.998423 eV
  Excited state 17 (A)                                         [not converged]
  Term symbol:  18 (-) A                                    R^2 =  1.30985e-01
  Excitation energy:                                             323.718466 eV
  Excited state 18 (A)                                         [not converged]
  Term symbol:  19 (-) A                                    R^2 =  4.01375e-03
  Excitation energy:                                             323.799172 eV
  Excited state 19 (A)                                         [not converged]
  Term symbol:  20 (-) A                                    R^2 =  1.19643e-02
  Excitation energy:                                             323.799322 eV
  Excited state 20 (A)                                         [not converged]
  Term symbol:  21 (-) A                                    R^2 =  1.04011e-01
  Excitation energy:                                             323.805228 eV

                    Orbital Energies (a.u.)
 --------------------------------------------------------------

 Alpha MOs
 -- Occupied --
-26.539 -26.527 -26.519 -25.964 -11.741  -1.937  -1.838  -1.814
 -1.225  -1.109  -1.014  -1.010  -0.953  -0.852  -0.847  -0.822
 -0.811  -0.802  -0.333  -0.333  -0.323

 Beta MOs
 -- Occupied --
-26.539 -26.527 -26.519 -25.964 -11.741  -1.937  -1.838  -1.814
 -1.225  -1.109  -1.014  -1.010  -0.953  -0.852  -0.847  -0.822
 -0.811  -0.802  -0.333  -0.333  -0.323

          Ground-State Mulliken Net Atomic Charges

     Atom                 Charge (a.u.)    Spin (a.u.)
  --------------------------------------------------------
      1 C                     1.194693       0.000000
      2 F                    -0.158948       0.000000
      3 F                    -0.074333       0.000000
      4 F                    -0.869621       0.000000
      5 F                    -0.091791       0.000000
  --------------------------------------------------------
  Sum of atomic charges =     0.000000

                    Cartesian Multipole Moments
 -----------------------------------------------------------------
    Charge (ESU x 10^10)
                 0.0000
    Dipole Moment (Debye)
         X       3.7298      Y       9.0611      Z      -3.8610
       Tot      10.5319
    Quadrupole Moments (Debye-Ang)
        XX     -30.0327     XY      -1.2127     YY      12.8375
        XZ       4.3336     YZ      -5.8173     ZZ     -24.1284

 Total job time:  2203.43s(wall), 3569.43s(cpu)
        *  Thank you very much for using Q-Chem.  Have a nice day.  *
