 Q-Chem 4.3, Q-Chem, Inc., Pleasanton, CA (2015)
 Q-Chem 4.3.0 for Intel X86 Linux

User input:
--------------------------------------------------------------
$comment
XAS calculation for the 2b valence excited for water using cvs-adc(2)-x + 6-311+G* basis set
job 1 - determination of HF orbitals
$end

$molecule
0 1
6  -0.435731  2.808948  -0.220534
9  0.688401  2.565426  -0.117273
9  -1.077416  3.219568  0.735537
9  -1.544649  0.627012  0.786976
9  -1.015738  2.685466  -1.267306
$end

$rem
jobtype      sp
sym_ignore true
exchange     hf
basis        6-31G*
unrestricted true
$end

--------------------------------------------------------------

    9    -435.3857999827      6.29E-06 Convergence criterion met
 Total energy in the final basis set = -435.3857999827
 Total job time:  2.53s(wall), 11.24s(cpu)
        *  Thank you very much for using Q-Chem.  Have a nice day.  *
 Q-Chem 4.3, Q-Chem, Inc., Pleasanton, CA (2015)
 Q-Chem 4.3.0 for Intel X86 Linux

User input:
--------------------------------------------------------------

$comment
job3 - cvs-adc(2) calculation
$end

$molecule
read
$end

$rem
mem_total 3000
mem_static 1500
sym_ignore true
scf_guess read
method cvs-adc(2)
basis 6-31G*
ee_singlets 20
cc_rest_occ 5                  !only excitations from the lowest N orbitals
unrestricted  true
max_scf_cycles 200
$end
--------------------------------------------------------------

             Standard Nuclear Orientation (Angstroms)
    I     Atom           X                Y                Z
 ----------------------------------------------------------------
    1      C      -0.4357310000     2.8089480000    -0.2205340000
    2      F       0.6884010000     2.5654260000    -0.1172730000
    3      F      -1.0774160000     3.2195680000     0.7355370000
    4      F      -1.5446490000     0.6270120000     0.7869760000
    5      F      -1.0157380000     2.6854660000    -1.2673060000
 ----------------------------------------------------------------

    7    -435.3858001899      3.16E-09 Convergence criterion met
 Total energy in the final basis set = -435.3858001899
  Term symbol:  2 (-) A                                     R^2 =  2.87905e-12
  Excitation energy:                                             294.997357 eV
  Term symbol:  3 (-) A                                     R^2 =  1.64440e-12
  Excitation energy:                                             296.945413 eV
  Term symbol:  4 (-) A                                     R^2 =  5.23100e-13
  Excitation energy:                                             303.764490 eV
  Term symbol:  5 (-) A                                     R^2 =  4.26578e-13
  Excitation energy:                                             305.261386 eV
  Term symbol:  6 (-) A                                     R^2 =  4.15821e-13
  Excitation energy:                                             305.809150 eV
  Term symbol:  7 (-) A                                     R^2 =  1.11030e-12
  Excitation energy:                                             307.491275 eV
  Term symbol:  8 (-) A                                     R^2 =  3.24080e-13
  Excitation energy:                                             308.026470 eV
  Term symbol:  9 (-) A                                     R^2 =  3.40176e-13
  Excitation energy:                                             309.618908 eV
  Term symbol:  10 (-) A                                    R^2 =  1.40179e-12
  Excitation energy:                                             312.650580 eV
  Excited state 10 (A)                                             [converged]
  Term symbol:  11 (-) A                                    R^2 =  2.77237e-12
  Excitation energy:                                             314.149376 eV
  Excited state 11 (A)                                             [converged]
  Term symbol:  12 (-) A                                    R^2 =  1.37693e-12
  Excitation energy:                                             314.548299 eV
  Excited state 12 (A)                                             [converged]
  Term symbol:  13 (-) A                                    R^2 =  7.17284e-13
  Excitation energy:                                             314.947208 eV
  Excited state 13 (A)                                             [converged]
  Term symbol:  14 (-) A                                    R^2 =  3.84215e-13
  Excitation energy:                                             314.958488 eV
  Excited state 14 (A)                                             [converged]
  Term symbol:  15 (-) A                                    R^2 =  1.36801e-12
  Excitation energy:                                             315.446749 eV
  Excited state 15 (A)                                             [converged]
  Term symbol:  16 (-) A                                    R^2 =  1.94334e-12
  Excitation energy:                                             317.315561 eV
  Excited state 16 (A)                                             [converged]
  Term symbol:  17 (-) A                                    R^2 =  6.62447e-10
  Excitation energy:                                             318.244687 eV
  Excited state 17 (A)                                         [not converged]
  Term symbol:  18 (-) A                                    R^2 =  1.06247e-01
  Excitation energy:                                             330.759621 eV
  Excited state 18 (A)                                         [not converged]
  Term symbol:  19 (-) A                                    R^2 =  1.01488e-01
  Excitation energy:                                             331.038607 eV
  Excited state 19 (A)                                         [not converged]
  Term symbol:  20 (-) A                                    R^2 =  1.64777e-01
  Excitation energy:                                             331.099664 eV
  Excited state 20 (A)                                             [converged]
  Term symbol:  21 (-) A                                    R^2 =  2.49228e-09
  Excitation energy:                                             331.307079 eV

                    Orbital Energies (a.u.)
 --------------------------------------------------------------

 Alpha MOs
 -- Occupied --
-26.571 -26.541 -26.517 -25.977 -11.741  -2.003  -1.896  -1.850
 -1.229  -1.138  -1.064  -1.053  -1.007  -0.884  -0.879  -0.866
 -0.832  -0.818  -0.339  -0.339  -0.327

 Beta MOs
 -- Occupied --
-26.571 -26.541 -26.517 -25.977 -11.741  -2.003  -1.896  -1.850
 -1.229  -1.138  -1.064  -1.053  -1.007  -0.884  -0.879  -0.866
 -0.832  -0.818  -0.339  -0.339  -0.327

          Ground-State Mulliken Net Atomic Charges

     Atom                 Charge (a.u.)    Spin (a.u.)
  --------------------------------------------------------
      1 C                     1.086013       0.000000
      2 F                    -0.037520       0.000000
      3 F                    -0.107580       0.000000
      4 F                    -0.840681       0.000000
      5 F                    -0.100232       0.000000
  --------------------------------------------------------
  Sum of atomic charges =     0.000000

                    Cartesian Multipole Moments
 -----------------------------------------------------------------
    Charge (ESU x 10^10)
                 0.0000
    Dipole Moment (Debye)
         X       4.6986      Y       8.7183      Z      -4.0592
       Tot      10.7034
    Quadrupole Moments (Debye-Ang)
        XX     -31.3435     XY      -0.0460     YY       7.8592
        XZ       5.1130     YZ      -4.8124     ZZ     -24.8933

 Total job time:  2026.35s(wall), 3309.16s(cpu)
        *  Thank you very much for using Q-Chem.  Have a nice day.  *
