 Q-Chem 4.3, Q-Chem, Inc., Pleasanton, CA (2015)
 Q-Chem 4.3.0 for Intel X86 Linux

User input:
--------------------------------------------------------------
$comment
XAS calculation for the 2b valence excited for water using cvs-adc(2)-x + 6-311+G* basis set
job 1 - determination of HF orbitals
$end

$molecule
0 1
6  -0.474832  3.184922  -0.267199
9  0.476177  2.458873  0.032079
9  -1.019379  3.837866  0.611794
9  -1.279594  -0.359722  0.81118
9  -1.120844  2.934228  -1.283151
$end

$rem
jobtype      sp
sym_ignore true
exchange     hf
basis        6-31G*
unrestricted true
$end

--------------------------------------------------------------

   22    -435.2920784868      6.89E-07 Convergence criterion met
 Total energy in the final basis set = -435.2920784868
 Total job time:  9.44s(wall), 18.25s(cpu)
        *  Thank you very much for using Q-Chem.  Have a nice day.  *
 Q-Chem 4.3, Q-Chem, Inc., Pleasanton, CA (2015)
 Q-Chem 4.3.0 for Intel X86 Linux

User input:
--------------------------------------------------------------

$comment
job3 - cvs-adc(2) calculation
$end

$molecule
read
$end

$rem
mem_total 3000
mem_static 1500
sym_ignore true
scf_guess read
method cvs-adc(2)
basis 6-31G*
ee_singlets 20
cc_rest_occ 1                  !only excitations from the lowest N orbitals
unrestricted  true
max_scf_cycles 200
$end
--------------------------------------------------------------

             Standard Nuclear Orientation (Angstroms)
    I     Atom           X                Y                Z
 ----------------------------------------------------------------
    1      C      -0.4748320000     3.1849220000    -0.2671990000
    2      F       0.4761770000     2.4588730000     0.0320790000
    3      F      -1.0193790000     3.8378660000     0.6117940000
    4      F      -1.2795940000    -0.3597220000     0.8111800000
    5      F      -1.1208440000     2.9342280000    -1.2831510000
 ----------------------------------------------------------------

   10    -435.2920782628      3.48E-09 Convergence criterion met
 Total energy in the final basis set = -435.2920782628
  Term symbol:  2 (-) A                                     R^2 =  3.30728e-13
  Excitation energy:                                             690.390877 eV
  Term symbol:  3 (-) A                                     R^2 =  1.34342e-13
  Excitation energy:                                             690.628357 eV
  Term symbol:  4 (-) A                                     R^2 =  2.22576e-13
  Excitation energy:                                             696.414423 eV
  Term symbol:  5 (-) A                                     R^2 =  2.75735e-13
  Excitation energy:                                             697.318256 eV
  Term symbol:  6 (-) A                                     R^2 =  4.07572e-13
  Excitation energy:                                             701.530605 eV
  Term symbol:  7 (-) A                                     R^2 =  3.35491e-13
  Excitation energy:                                             701.700521 eV
  Term symbol:  8 (-) A                                     R^2 =  5.19677e-13
  Excitation energy:                                             701.854101 eV
  Term symbol:  9 (-) A                                     R^2 =  3.70355e-13
  Excitation energy:                                             702.007093 eV
  Term symbol:  10 (-) A                                    R^2 =  3.48869e-13
  Excitation energy:                                             705.780086 eV
  Excited state 10 (A)                                             [converged]
  Term symbol:  11 (-) A                                    R^2 =  3.36761e-13
  Excitation energy:                                             706.099317 eV
  Excited state 11 (A)                                             [converged]
  Term symbol:  12 (-) A                                    R^2 =  3.74096e-13
  Excitation energy:                                             706.957985 eV
  Excited state 12 (A)                                             [converged]
  Term symbol:  13 (-) A                                    R^2 =  7.68811e-13
  Excitation energy:                                             707.070359 eV
  Excited state 13 (A)                                             [converged]
  Term symbol:  14 (-) A                                    R^2 =  3.81332e-13
  Excitation energy:                                             707.433810 eV
  Excited state 14 (A)                                             [converged]
  Term symbol:  15 (-) A                                    R^2 =  1.28112e-12
  Excitation energy:                                             707.442127 eV
  Excited state 15 (A)                                             [converged]
  Term symbol:  16 (-) A                                    R^2 =  2.83648e-13
  Excitation energy:                                             709.051099 eV
  Excited state 16 (A)                                             [converged]
  Term symbol:  17 (-) A                                    R^2 =  2.14297e-12
  Excitation energy:                                             709.063502 eV
  Excited state 17 (A)                                             [converged]
  Term symbol:  18 (-) A                                    R^2 =  5.86725e-10
  Excitation energy:                                             721.146300 eV
  Excited state 18 (A)                                             [converged]
  Term symbol:  19 (-) A                                    R^2 =  2.86178e-08
  Excitation energy:                                             722.270729 eV
  Excited state 19 (A)                                             [converged]
  Term symbol:  20 (-) A                                    R^2 =  2.14739e-07
  Excitation energy:                                             722.425009 eV
  Excited state 20 (A)                                         [not converged]
  Term symbol:  21 (-) A                                    R^2 =  3.75938e-05
  Excitation energy:                                             723.364374 eV

                    Orbital Energies (a.u.)
 --------------------------------------------------------------

 Alpha MOs
 -- Occupied --
-26.608 -26.602 -26.593 -25.868 -11.806  -2.019  -1.918  -1.907
 -1.180  -1.132  -1.094  -1.090  -1.038  -0.928  -0.923  -0.904
 -0.892  -0.876  -0.243  -0.243  -0.232

 Beta MOs
 -- Occupied --
-26.608 -26.602 -26.593 -25.868 -11.806  -2.019  -1.918  -1.907
 -1.180  -1.132  -1.094  -1.090  -1.038  -0.928  -0.923  -0.904
 -0.892  -0.876  -0.243  -0.243  -0.232

          Ground-State Mulliken Net Atomic Charges

     Atom                 Charge (a.u.)    Spin (a.u.)
  --------------------------------------------------------
      1 C                     1.231197       0.000000
      2 F                    -0.082155       0.000000
      3 F                    -0.100583       0.000000
      4 F                    -0.948924       0.000000
      5 F                    -0.099535       0.000000
  --------------------------------------------------------
  Sum of atomic charges =     0.000000

                    Cartesian Multipole Moments
 -----------------------------------------------------------------
    Charge (ESU x 10^10)
                 0.0000
    Dipole Moment (Debye)
         X       3.7380      Y      15.9081      Z      -4.8673
       Tot      17.0509
    Quadrupole Moments (Debye-Ang)
        XX     -28.6763     XY      -8.3348     YY      22.7925
        XZ       5.1400     YZ      -2.7471     ZZ     -24.9692

 Total job time:  217.60s(wall), 1180.29s(cpu)
        *  Thank you very much for using Q-Chem.  Have a nice day.  *
