 Q-Chem 4.3, Q-Chem, Inc., Pleasanton, CA (2015)
 Q-Chem 4.3.0 for Intel X86 Linux

User input:
--------------------------------------------------------------
$comment
XAS calculation for the 2b valence excited for water using cvs-adc(2)-x + 6-311+G* basis set
job 1 - determination of HF orbitals
$end

$molecule
0 1
6  -0.574456  2.4318  -0.08777
9  0.579857  2.355632  -0.002841
9  -1.147717  3.270342  0.801932
9  -1.171275  1.174418  0.45289
9  -1.1326  2.549951  -1.198363
$end

$rem
jobtype      sp
sym_ignore true
exchange     hf
basis        6-31G*
unrestricted true
$end

--------------------------------------------------------------

    8    -435.5879019612      5.53E-06 Convergence criterion met
 Total energy in the final basis set = -435.5879019612
 Total job time:  2.31s(wall), 9.50s(cpu)
        *  Thank you very much for using Q-Chem.  Have a nice day.  *
 Q-Chem 4.3, Q-Chem, Inc., Pleasanton, CA (2015)
 Q-Chem 4.3.0 for Intel X86 Linux

User input:
--------------------------------------------------------------

$comment
job3 - cvs-adc(2) calculation
$end

$molecule
read
$end

$rem
mem_total 3000
mem_static 1500
sym_ignore true
scf_guess read
method cvs-adc(2)
basis 6-31G*
ee_singlets 20
cc_rest_occ 5                  !only excitations from the lowest N orbitals
unrestricted  true
max_scf_cycles 200
$end
--------------------------------------------------------------

             Standard Nuclear Orientation (Angstroms)
    I     Atom           X                Y                Z
 ----------------------------------------------------------------
    1      C      -0.5744560000     2.4318000000    -0.0877700000
    2      F       0.5798570000     2.3556320000    -0.0028410000
    3      F      -1.1477170000     3.2703420000     0.8019320000
    4      F      -1.1712750000     1.1744180000     0.4528900000
    5      F      -1.1326000000     2.5499510000    -1.1983630000
 ----------------------------------------------------------------

    6    -435.5879020003      4.89E-09 Convergence criterion met
 Total energy in the final basis set = -435.5879020003
  Term symbol:  2 (-) A                                     R^2 =  2.99162e-14
  Excitation energy:                                             298.462796 eV
  Term symbol:  3 (-) A                                     R^2 =  2.36154e-14
  Excitation energy:                                             300.551628 eV
  Term symbol:  4 (-) A                                     R^2 =  4.68535e-14
  Excitation energy:                                             301.444094 eV
  Term symbol:  5 (-) A                                     R^2 =  4.10755e-14
  Excitation energy:                                             303.772122 eV
  Term symbol:  6 (-) A                                     R^2 =  4.13306e-14
  Excitation energy:                                             303.868891 eV
  Term symbol:  7 (-) A                                     R^2 =  5.20191e-14
  Excitation energy:                                             306.135674 eV
  Term symbol:  8 (-) A                                     R^2 =  4.24345e-14
  Excitation energy:                                             306.353581 eV
  Term symbol:  9 (-) A                                     R^2 =  4.00402e-14
  Excitation energy:                                             308.077951 eV
  Term symbol:  10 (-) A                                    R^2 =  5.63520e-14
  Excitation energy:                                             312.274311 eV
  Excited state 10 (A)                                             [converged]
  Term symbol:  11 (-) A                                    R^2 =  6.49607e-14
  Excitation energy:                                             313.402091 eV
  Excited state 11 (A)                                             [converged]
  Term symbol:  12 (-) A                                    R^2 =  1.55584e-13
  Excitation energy:                                             313.419157 eV
  Excited state 12 (A)                                             [converged]
  Term symbol:  13 (-) A                                    R^2 =  9.15308e-14
  Excitation energy:                                             313.849987 eV
  Excited state 13 (A)                                             [converged]
  Term symbol:  14 (-) A                                    R^2 =  1.80588e-13
  Excitation energy:                                             314.054106 eV
  Excited state 14 (A)                                             [converged]
  Term symbol:  15 (-) A                                    R^2 =  4.02944e-13
  Excitation energy:                                             314.680367 eV
  Excited state 15 (A)                                             [converged]
  Term symbol:  16 (-) A                                    R^2 =  4.48566e-13
  Excitation energy:                                             315.716780 eV
  Excited state 16 (A)                                             [converged]
  Term symbol:  17 (-) A                                    R^2 =  4.23011e-13
  Excitation energy:                                             316.055175 eV
  Excited state 17 (A)                                             [converged]
  Term symbol:  18 (-) A                                    R^2 =  5.05245e-09
  Excitation energy:                                             329.744028 eV
  Excited state 18 (A)                                             [converged]
  Term symbol:  19 (-) A                                    R^2 =  4.90424e-08
  Excitation energy:                                             329.944571 eV
  Excited state 19 (A)                                             [converged]
  Term symbol:  20 (-) A                                    R^2 =  3.59008e-07
  Excitation energy:                                             330.329051 eV
  Excited state 20 (A)                                         [not converged]
  Term symbol:  21 (-) A                                    R^2 =  1.41288e-06
  Excitation energy:                                             330.373124 eV

                    Orbital Energies (a.u.)
 --------------------------------------------------------------

 Alpha MOs
 -- Occupied --
-26.449 -26.404 -26.353 -26.286 -11.615  -1.880  -1.759  -1.664
 -1.561  -1.033  -0.937  -0.916  -0.900  -0.780  -0.758  -0.749
 -0.704  -0.679  -0.632  -0.619  -0.607

 Beta MOs
 -- Occupied --
-26.449 -26.404 -26.353 -26.286 -11.615  -1.880  -1.759  -1.664
 -1.561  -1.033  -0.937  -0.916  -0.900  -0.780  -0.758  -0.749
 -0.704  -0.679  -0.632  -0.619  -0.607

          Ground-State Mulliken Net Atomic Charges

     Atom                 Charge (a.u.)    Spin (a.u.)
  --------------------------------------------------------
      1 C                     1.251983       0.000000
      2 F                    -0.140637       0.000000
      3 F                    -0.368950       0.000000
      4 F                    -0.482329       0.000000
      5 F                    -0.260066       0.000000
  --------------------------------------------------------
  Sum of atomic charges =     0.000000

                    Cartesian Multipole Moments
 -----------------------------------------------------------------
    Charge (ESU x 10^10)
                 0.0000
    Dipole Moment (Debye)
         X       1.6027      Y       1.0925      Z      -1.1178
       Tot       2.2387
    Quadrupole Moments (Debye-Ang)
        XX     -26.1720     XY       2.6799     YY     -20.8321
        XZ       1.0828     YZ      -2.4507     ZZ     -24.7635

 Total job time:  2067.79s(wall), 3343.78s(cpu)
        *  Thank you very much for using Q-Chem.  Have a nice day.  *
