 Q-Chem 4.3, Q-Chem, Inc., Pleasanton, CA (2015)
 Q-Chem 4.3.0 for Intel X86 Linux

User input:
--------------------------------------------------------------
$comment
XAS calculation for the 2b valence excited for water using cvs-adc(2)-x + 6-311+G* basis set
job 1 - determination of HF orbitals
$end

$molecule
0 1
6  -0.700502  2.370711  -0.024299
9  0.599944  2.344203  0.003384
9  -1.130744  3.293715  0.784232
9  -1.12924  1.188778  0.423329
9  -1.129411  2.555923  -1.197544
$end

$rem
jobtype      sp
sym_ignore true
exchange     hf
basis        6-31G*
unrestricted true
$end

--------------------------------------------------------------

    8    -435.6427340161      3.43E-06 Convergence criterion met
 Total energy in the final basis set = -435.6427340161

                    Orbital Energies (a.u.)
 --------------------------------------------------------------

 Alpha MOs
 -- Occupied --
-26.390 -26.375 -26.373 -26.358 -11.604  -1.819  -1.699  -1.679
 -1.659  -1.006  -0.897  -0.892  -0.887  -0.761  -0.759  -0.713
 -0.705  -0.696  -0.677  -0.670  -0.665

 Beta MOs
 -- Occupied --
-26.390 -26.375 -26.373 -26.358 -11.604  -1.819  -1.699  -1.679
 -1.659  -1.006  -0.897  -0.892  -0.887  -0.761  -0.759  -0.713
 -0.705  -0.696  -0.677  -0.670  -0.665

          Ground-State Mulliken Net Atomic Charges

     Atom                 Charge (a.u.)    Spin (a.u.)
  --------------------------------------------------------
      1 C                     1.304903       0.000000
      2 F                    -0.328865       0.000000
      3 F                    -0.327318       0.000000
      4 F                    -0.361784       0.000000
      5 F                    -0.286935       0.000000
  --------------------------------------------------------
  Sum of atomic charges =     0.000000

                    Cartesian Multipole Moments
 -----------------------------------------------------------------
    Charge (ESU x 10^10)
                 0.0000
    Dipole Moment (Debye)
         X      -0.0270      Y       0.2739      Z      -0.3170
       Tot       0.4198
    Quadrupole Moments (Debye-Ang)
        XX     -24.8927     XY      -0.3295     YY     -23.8210
        XZ       0.3144     YZ      -0.7176     ZZ     -24.7280

 Total job time:  2.24s(wall), 8.93s(cpu)
        *  Thank you very much for using Q-Chem.  Have a nice day.  *
 Q-Chem 4.3, Q-Chem, Inc., Pleasanton, CA (2015)
 Q-Chem 4.3.0 for Intel X86 Linux

User input:
--------------------------------------------------------------

$comment
job3 - cvs-adc(2) calculation
$end

$molecule
read
$end

$rem
mem_total 3000
mem_static 1500
sym_ignore true
scf_guess read
method cvs-adc(2)
basis 6-31G*
ee_singlets 20
cc_rest_occ 5                  !only excitations from the lowest N orbitals
unrestricted  true
max_scf_cycles 200
$end
--------------------------------------------------------------

             Standard Nuclear Orientation (Angstroms)
    I     Atom           X                Y                Z
 ----------------------------------------------------------------
    1      C      -0.7005020000     2.3707110000    -0.0242990000
    2      F       0.5999440000     2.3442030000     0.0033840000
    3      F      -1.1307440000     3.2937150000     0.7842320000
    4      F      -1.1292400000     1.1887780000     0.4233290000
    5      F      -1.1294110000     2.5559230000    -1.1975440000
 ----------------------------------------------------------------

    5    -435.6427340396      2.65E-09 Convergence criterion met
 Total energy in the final basis set = -435.6427340396
