 Q-Chem 4.3, Q-Chem, Inc., Pleasanton, CA (2015)
 Q-Chem 4.3.0 for Intel X86 Linux

User input:
--------------------------------------------------------------
$comment
XAS calculation for the 2b valence excited for water using cvs-adc(2)-x + 6-311+G* basis set
job 1 - determination of HF orbitals
$end

$molecule
0 1
6  -0.502307  3.059951  -0.241596
9  0.631811  2.601593  -0.095966
9  -1.030619  3.567849  0.635571
9  -1.519062  -0.094261  0.910996
9  -1.028217  2.88429  -1.291705
$end

$rem
jobtype      sp
sym_ignore true
exchange     hf
basis        6-31G*
unrestricted true
$end

--------------------------------------------------------------

   12    -435.3094131020      1.68E-06 Convergence criterion met
 Total energy in the final basis set = -435.3094131020
 Total job time:  3.20s(wall), 12.80s(cpu)
        *  Thank you very much for using Q-Chem.  Have a nice day.  *
 Q-Chem 4.3, Q-Chem, Inc., Pleasanton, CA (2015)
 Q-Chem 4.3.0 for Intel X86 Linux

User input:
--------------------------------------------------------------

$comment
job3 - cvs-adc(2) calculation
$end

$molecule
read
$end

$rem
mem_total 3000
mem_static 1500
sym_ignore true
scf_guess read
method cvs-adc(2)
basis 6-31G*
ee_singlets 20
cc_rest_occ 5                  !only excitations from the lowest N orbitals
unrestricted  true
max_scf_cycles 200
$end
--------------------------------------------------------------

             Standard Nuclear Orientation (Angstroms)
    I     Atom           X                Y                Z
 ----------------------------------------------------------------
    1      C      -0.5023070000     3.0599510000    -0.2415960000
    2      F       0.6318110000     2.6015930000    -0.0959660000
    3      F      -1.0306190000     3.5678490000     0.6355710000
    4      F      -1.5190620000    -0.0942610000     0.9109960000
    5      F      -1.0282170000     2.8842900000    -1.2917050000
 ----------------------------------------------------------------

    6    -435.3094131364      2.70E-09 Convergence criterion met
 Total energy in the final basis set = -435.3094131364
  Term symbol:  2 (-) A                                     R^2 =  6.99152e-14
  Excitation energy:                                             294.903601 eV
  Term symbol:  3 (-) A                                     R^2 =  4.88750e-14
  Excitation energy:                                             296.823929 eV
  Term symbol:  4 (-) A                                     R^2 =  8.32613e-14
  Excitation energy:                                             303.579902 eV
  Term symbol:  5 (-) A                                     R^2 =  3.76828e-13
  Excitation energy:                                             305.025687 eV
  Term symbol:  6 (-) A                                     R^2 =  3.89684e-14
  Excitation energy:                                             305.877331 eV
  Term symbol:  7 (-) A                                     R^2 =  2.95096e-14
  Excitation energy:                                             307.988986 eV
  Term symbol:  8 (-) A                                     R^2 =  1.17900e-13
  Excitation energy:                                             308.029288 eV
  Term symbol:  9 (-) A                                     R^2 =  6.99921e-14
  Excitation energy:                                             310.063669 eV
  Term symbol:  10 (-) A                                    R^2 =  1.77545e-13
  Excitation energy:                                             312.973215 eV
  Excited state 10 (A)                                             [converged]
  Term symbol:  11 (-) A                                    R^2 =  7.73796e-14
  Excitation energy:                                             314.201780 eV
  Excited state 11 (A)                                             [converged]
  Term symbol:  12 (-) A                                    R^2 =  9.89290e-14
  Excitation energy:                                             314.582567 eV
  Excited state 12 (A)                                             [converged]
  Term symbol:  13 (-) A                                    R^2 =  8.95156e-14
  Excitation energy:                                             314.905263 eV
  Excited state 13 (A)                                             [converged]
  Term symbol:  14 (-) A                                    R^2 =  2.76445e-13
  Excitation energy:                                             314.982644 eV
  Excited state 14 (A)                                             [converged]
  Term symbol:  15 (-) A                                    R^2 =  4.30192e-13
  Excitation energy:                                             315.034421 eV
  Excited state 15 (A)                                             [converged]
  Term symbol:  16 (-) A                                    R^2 =  5.26362e-13
  Excitation energy:                                             315.412036 eV
  Excited state 16 (A)                                             [converged]
  Term symbol:  17 (-) A                                    R^2 =  7.51951e-13
  Excitation energy:                                             316.374399 eV
  Excited state 17 (A)                                             [converged]
  Term symbol:  18 (-) A                                    R^2 =  6.74202e-09
  Excitation energy:                                             331.519891 eV
  Excited state 18 (A)                                             [converged]
  Term symbol:  19 (-) A                                    R^2 =  6.29774e-07
  Excitation energy:                                             331.656756 eV
  Excited state 19 (A)                                             [converged]
  Term symbol:  20 (-) A                                    R^2 =  4.23133e-08
  Excitation energy:                                             331.691492 eV
  Excited state 20 (A)                                             [converged]
  Term symbol:  21 (-) A                                    R^2 =  5.57446e-08
  Excitation energy:                                             331.691893 eV

                    Orbital Energies (a.u.)
 --------------------------------------------------------------

 Alpha MOs
 -- Occupied --
-26.622 -26.599 -26.574 -25.878 -11.792  -2.063  -1.958  -1.903
 -1.189  -1.141  -1.119  -1.109  -1.065  -0.937  -0.930  -0.918
 -0.887  -0.871  -0.252  -0.252  -0.246

 Beta MOs
 -- Occupied --
-26.622 -26.599 -26.574 -25.878 -11.792  -2.063  -1.958  -1.903
 -1.189  -1.141  -1.119  -1.109  -1.065  -0.937  -0.930  -0.918
 -0.887  -0.871  -0.252  -0.252  -0.246

          Ground-State Mulliken Net Atomic Charges

     Atom                 Charge (a.u.)    Spin (a.u.)
  --------------------------------------------------------
      1 C                     1.140625       0.000000
      2 F                    -0.118022       0.000000
      3 F                    -0.001270       0.000000
      4 F                    -0.954894       0.000000
      5 F                    -0.066439       0.000000
  --------------------------------------------------------
  Sum of atomic charges =     0.000000

                    Cartesian Multipole Moments
 -----------------------------------------------------------------
    Charge (ESU x 10^10)
                 0.0000
    Dipole Moment (Debye)
         X       4.3067      Y      14.3982      Z      -5.0540
       Tot      15.8555
    Quadrupole Moments (Debye-Ang)
        XX     -31.3381     XY      -8.3698     YY      21.3654
        XZ       6.6326     YZ      -2.5692     ZZ     -25.6288

 Total job time:  1870.36s(wall), 3114.28s(cpu)
        *  Thank you very much for using Q-Chem.  Have a nice day.  *
