 Q-Chem 4.3, Q-Chem, Inc., Pleasanton, CA (2015)
 Q-Chem 4.3.0 for Intel X86 Linux

User input:
--------------------------------------------------------------
$comment
XAS calculation for the 2b valence excited for water using cvs-adc(2)-x + 6-311+G* basis set
job 1 - determination of HF orbitals
$end

$molecule
0 1
6  -0.520445  2.720414  -0.214019
9  0.80972  2.772075  -0.195137
9  -1.044078  3.145764  0.713497
9  -1.745642  0.552683  0.917644
9  -0.953733  2.755594  -1.29931
$end

$rem
jobtype      sp
sym_ignore true
exchange     hf
basis        6-31G*
unrestricted true
$end

--------------------------------------------------------------

   11    -435.3567042680      5.31E-06 Convergence criterion met
 Total energy in the final basis set = -435.3567042680
 Total job time:  2.96s(wall), 13.44s(cpu)
        *  Thank you very much for using Q-Chem.  Have a nice day.  *
 Q-Chem 4.3, Q-Chem, Inc., Pleasanton, CA (2015)
 Q-Chem 4.3.0 for Intel X86 Linux

User input:
--------------------------------------------------------------

$comment
job3 - cvs-adc(2) calculation
$end

$molecule
read
$end

$rem
mem_total 3000
mem_static 1500
sym_ignore true
scf_guess read
method cvs-adc(2)
basis 6-31G*
ee_singlets 20
cc_rest_occ 5                  !only excitations from the lowest N orbitals
unrestricted  true
max_scf_cycles 200
$end
--------------------------------------------------------------

             Standard Nuclear Orientation (Angstroms)
    I     Atom           X                Y                Z
 ----------------------------------------------------------------
    1      C      -0.5204450000     2.7204140000    -0.2140190000
    2      F       0.8097200000     2.7720750000    -0.1951370000
    3      F      -1.0440780000     3.1457640000     0.7134970000
    4      F      -1.7456420000     0.5526830000     0.9176440000
    5      F      -0.9537330000     2.7555940000    -1.2993100000
 ----------------------------------------------------------------

    8    -435.3567045350      3.28E-09 Convergence criterion met
 Total energy in the final basis set = -435.3567045350
  Term symbol:  2 (-) A                                     R^2 =  6.79648e-14
  Excitation energy:                                             294.638508 eV
  Term symbol:  3 (-) A                                     R^2 =  1.06729e-13
  Excitation energy:                                             296.609363 eV
  Term symbol:  4 (-) A                                     R^2 =  9.75449e-14
  Excitation energy:                                             301.973280 eV
  Term symbol:  5 (-) A                                     R^2 =  4.19790e-14
  Excitation energy:                                             304.148882 eV
  Term symbol:  6 (-) A                                     R^2 =  9.78437e-14
  Excitation energy:                                             305.547292 eV
  Term symbol:  7 (-) A                                     R^2 =  6.10578e-14
  Excitation energy:                                             307.012483 eV
  Term symbol:  8 (-) A                                     R^2 =  7.92590e-14
  Excitation energy:                                             308.164945 eV
  Term symbol:  9 (-) A                                     R^2 =  7.91934e-14
  Excitation energy:                                             310.104751 eV
  Term symbol:  10 (-) A                                    R^2 =  6.59546e-13
  Excitation energy:                                             313.189107 eV
  Excited state 10 (A)                                             [converged]
  Term symbol:  11 (-) A                                    R^2 =  1.80112e-13
  Excitation energy:                                             314.323042 eV
  Excited state 11 (A)                                             [converged]
  Term symbol:  12 (-) A                                    R^2 =  1.06992e-13
  Excitation energy:                                             314.457872 eV
  Excited state 12 (A)                                             [converged]
  Term symbol:  13 (-) A                                    R^2 =  2.37745e-13
  Excitation energy:                                             314.764693 eV
  Excited state 13 (A)                                             [converged]
  Term symbol:  14 (-) A                                    R^2 =  2.10723e-13
  Excitation energy:                                             315.053137 eV
  Excited state 14 (A)                                             [converged]
  Term symbol:  15 (-) A                                    R^2 =  1.37678e-13
  Excitation energy:                                             315.404353 eV
  Excited state 15 (A)                                             [converged]
  Term symbol:  16 (-) A                                    R^2 =  2.43140e-13
  Excitation energy:                                             316.293985 eV
  Excited state 16 (A)                                             [converged]
  Term symbol:  17 (-) A                                    R^2 =  5.54103e-13
  Excitation energy:                                             317.416850 eV
  Excited state 17 (A)                                             [converged]
  Term symbol:  18 (-) A                                    R^2 =  2.57409e-08
  Excitation energy:                                             328.965037 eV
  Excited state 18 (A)                                             [converged]
  Term symbol:  19 (-) A                                    R^2 =  2.41856e-09
  Excitation energy:                                             328.985589 eV
  Excited state 19 (A)                                             [converged]
  Term symbol:  20 (-) A                                    R^2 =  2.23201e-07
  Excitation energy:                                             331.196531 eV
  Excited state 20 (A)                                             [converged]
  Term symbol:  21 (-) A                                    R^2 =  5.99441e-07
  Excitation energy:                                             331.408338 eV

                    Orbital Energies (a.u.)
 --------------------------------------------------------------

 Alpha MOs
 -- Occupied --
-26.561 -26.554 -26.495 -26.018 -11.743  -2.001  -1.914  -1.792
 -1.260  -1.135  -1.063  -1.040  -1.001  -0.890  -0.865  -0.849
 -0.813  -0.802  -0.373  -0.372  -0.342

 Beta MOs
 -- Occupied --
-26.561 -26.554 -26.495 -26.018 -11.743  -2.001  -1.914  -1.792
 -1.260  -1.135  -1.063  -1.040  -1.001  -0.890  -0.865  -0.849
 -0.813  -0.802  -0.373  -0.372  -0.342

          Ground-State Mulliken Net Atomic Charges

     Atom                 Charge (a.u.)    Spin (a.u.)
  --------------------------------------------------------
      1 C                     1.076253       0.000000
      2 F                    -0.253295       0.000000
      3 F                     0.003886       0.000000
      4 F                    -0.772765       0.000000
      5 F                    -0.054079       0.000000
  --------------------------------------------------------
  Sum of atomic charges =     0.000000

                    Cartesian Multipole Moments
 -----------------------------------------------------------------
    Charge (ESU x 10^10)
                 0.0000
    Dipole Moment (Debye)
         X       3.6332      Y       7.9562      Z      -4.0344
       Tot       9.6321
    Quadrupole Moments (Debye-Ang)
        XX     -32.7152     XY      -3.9123     YY       3.9351
        XZ       6.1899     YZ      -3.8224     ZZ     -25.2419

 Total job time:  1923.94s(wall), 3097.64s(cpu)
        *  Thank you very much for using Q-Chem.  Have a nice day.  *
