 Q-Chem 4.3, Q-Chem, Inc., Pleasanton, CA (2015)
 Q-Chem 4.3.0 for Intel X86 Linux

User input:
--------------------------------------------------------------
$comment
XAS calculation for the 2b valence excited for water using cvs-adc(2)-x + 6-311+G* basis set
job 1 - determination of HF orbitals
$end

$molecule
0 1
6  -0.57003  2.696409  -0.151783
9  0.644773  2.578405  -0.078977
9  -1.069621  3.612363  0.692643
9  -1.422729  0.134514  0.809961
9  -1.064668  2.869028  -1.321497
$end

$rem
jobtype      sp
sym_ignore true
exchange     hf
basis        6-31G*
unrestricted true
$end

--------------------------------------------------------------

   15    -435.3453699563      4.71E-06 Convergence criterion met
 Total energy in the final basis set = -435.3453699563
 Total job time:  3.92s(wall), 16.54s(cpu)
        *  Thank you very much for using Q-Chem.  Have a nice day.  *
 Q-Chem 4.3, Q-Chem, Inc., Pleasanton, CA (2015)
 Q-Chem 4.3.0 for Intel X86 Linux

User input:
--------------------------------------------------------------

$comment
job3 - cvs-adc(2) calculation
$end

$molecule
read
$end

$rem
mem_total 3000
mem_static 1500
sym_ignore true
scf_guess read
method cvs-adc(2)
basis 6-31G*
ee_singlets 20
cc_rest_occ 5                  !only excitations from the lowest N orbitals
unrestricted  true
max_scf_cycles 200
$end
--------------------------------------------------------------

             Standard Nuclear Orientation (Angstroms)
    I     Atom           X                Y                Z
 ----------------------------------------------------------------
    1      C      -0.5700300000     2.6964090000    -0.1517830000
    2      F       0.6447730000     2.5784050000    -0.0789770000
    3      F      -1.0696210000     3.6123630000     0.6926430000
    4      F      -1.4227290000     0.1345140000     0.8099610000
    5      F      -1.0646680000     2.8690280000    -1.3214970000
 ----------------------------------------------------------------

    6    -435.3453701487      6.54E-09 Convergence criterion met
 Total energy in the final basis set = -435.3453701487
  Term symbol:  2 (-) A                                     R^2 =  7.50541e-08
  Excitation energy:                                             294.083314 eV
  Term symbol:  3 (-) A                                     R^2 =  2.16036e-08
  Excitation energy:                                             295.873102 eV
  Term symbol:  4 (-) A                                     R^2 =  3.51579e-08
  Excitation energy:                                             301.334371 eV
  Term symbol:  5 (-) A                                     R^2 =  1.28286e-09
  Excitation energy:                                             302.794100 eV
  Term symbol:  6 (-) A                                     R^2 =  2.31483e-08
  Excitation energy:                                             303.401725 eV
  Term symbol:  7 (-) A                                     R^2 =  1.29668e-07
  Excitation energy:                                             304.322119 eV
  Term symbol:  8 (-) A                                     R^2 =  4.48268e-08
  Excitation energy:                                             304.852550 eV
  Term symbol:  9 (-) A                                     R^2 =  6.81515e-08
  Excitation energy:                                             306.185897 eV
  Term symbol:  10 (-) A                                    R^2 =  1.58628e-08
  Excitation energy:                                             313.309268 eV
  Excited state 10 (A)                                             [converged]
  Term symbol:  11 (-) A                                    R^2 =  1.55073e-07
  Excitation energy:                                             313.696250 eV
  Excited state 11 (A)                                             [converged]
  Term symbol:  12 (-) A                                    R^2 =  2.80390e-08
  Excitation energy:                                             313.929809 eV
  Excited state 12 (A)                                             [converged]
  Term symbol:  13 (-) A                                    R^2 =  2.23945e-08
  Excitation energy:                                             314.048746 eV
  Excited state 13 (A)                                             [converged]
  Term symbol:  14 (-) A                                    R^2 =  4.92620e-07
  Excitation energy:                                             314.070516 eV
  Excited state 14 (A)                                             [converged]
  Term symbol:  15 (-) A                                    R^2 =  1.05059e-07
  Excitation energy:                                             314.213385 eV
  Excited state 15 (A)                                             [converged]
  Term symbol:  16 (-) A                                    R^2 =  2.94576e-08
  Excitation energy:                                             314.481503 eV
  Excited state 16 (A)                                             [converged]
  Term symbol:  17 (-) A                                    R^2 =  8.44852e-09
  Excitation energy:                                             315.283283 eV
  Excited state 17 (A)                                             [converged]
  Term symbol:  18 (-) A                                    R^2 =  1.89756e-07
  Excitation energy:                                             325.592020 eV
  Excited state 18 (A)                                             [converged]
  Term symbol:  19 (-) A                                    R^2 =  3.34418e-07
  Excitation energy:                                             325.683905 eV
  Excited state 19 (A)                                         [not converged]
  Term symbol:  20 (-) A                                    R^2 =  4.51747e-05
  Excitation energy:                                             330.990807 eV
  Excited state 20 (A)                                         [not converged]
  Term symbol:  21 (-) A                                    R^2 =  6.36877e-05
  Excitation energy:                                             331.128909 eV

                    Orbital Energies (a.u.)
 --------------------------------------------------------------

 Alpha MOs
 -- Occupied --
-26.528 -26.505 -26.480 -26.119 -11.725  -1.914  -1.817  -1.762
 -1.335  -1.096  -0.990  -0.978  -0.933  -0.841  -0.823  -0.815
 -0.789  -0.778  -0.453  -0.453  -0.374

 Beta MOs
 -- Occupied --
-26.528 -26.505 -26.480 -26.119 -11.725  -1.914  -1.817  -1.762
 -1.335  -1.096  -0.990  -0.978  -0.933  -0.841  -0.823  -0.815
 -0.789  -0.778  -0.453  -0.453  -0.374

          Ground-State Mulliken Net Atomic Charges

     Atom                 Charge (a.u.)    Spin (a.u.)
  --------------------------------------------------------
      1 C                     1.146170       0.000000
      2 F                    -0.121489       0.000000
      3 F                    -0.247437       0.000000
      4 F                    -0.584782       0.000000
      5 F                    -0.192462       0.000000
  --------------------------------------------------------
  Sum of atomic charges =     0.000000

                    Cartesian Multipole Moments
 -----------------------------------------------------------------
    Charge (ESU x 10^10)
                 0.0000
    Dipole Moment (Debye)
         X       2.6849      Y       6.6559      Z      -2.7758
       Tot       7.6952
    Quadrupole Moments (Debye-Ang)
        XX     -28.3016     XY      -2.1486     YY      -5.0656
        XZ       3.4038     YZ      -2.2073     ZZ     -25.3765

 Total job time:  2241.90s(wall), 3672.94s(cpu)
        *  Thank you very much for using Q-Chem.  Have a nice day.  *
