 Q-Chem 4.3, Q-Chem, Inc., Pleasanton, CA (2015)
 Q-Chem 4.3.0 for Intel X86 Linux

User input:
--------------------------------------------------------------
$comment
XAS calculation for the 2b valence excited for water using cvs-adc(2)-x + 6-311+G* basis set
job 1 - determination of HF orbitals
$end

$molecule
0 1
6  -0.592548  2.850532  -0.127207
9  0.578528  2.303484  0.021769
9  -1.148799  3.267799  0.782669
9  -1.182905  0.992053  0.499263
9  -1.157591  2.546808  -1.205367
$end

$rem
jobtype      sp
sym_ignore true
exchange     hf
basis        6-31G*
unrestricted true
$end

--------------------------------------------------------------

    9    -435.4101233970      4.48E-06 Convergence criterion met
 Total energy in the final basis set = -435.4101233970
 Total job time:  2.47s(wall), 10.11s(cpu)
        *  Thank you very much for using Q-Chem.  Have a nice day.  *
 Q-Chem 4.3, Q-Chem, Inc., Pleasanton, CA (2015)
 Q-Chem 4.3.0 for Intel X86 Linux

User input:
--------------------------------------------------------------

$comment
job3 - cvs-adc(2) calculation
$end

$molecule
read
$end

$rem
mem_total 3000
mem_static 1500
sym_ignore true
scf_guess read
method cvs-adc(2)
basis 6-31G*
ee_singlets 20
cc_rest_occ 5                  !only excitations from the lowest N orbitals
unrestricted  true
max_scf_cycles 200
$end
--------------------------------------------------------------

             Standard Nuclear Orientation (Angstroms)
    I     Atom           X                Y                Z
 ----------------------------------------------------------------
    1      C      -0.5925480000     2.8505320000    -0.1272070000
    2      F       0.5785280000     2.3034840000     0.0217690000
    3      F      -1.1487990000     3.2677990000     0.7826690000
    4      F      -1.1829050000     0.9920530000     0.4992630000
    5      F      -1.1575910000     2.5468080000    -1.2053670000
 ----------------------------------------------------------------

    6    -435.4101235676      5.03E-09 Convergence criterion met
 Total energy in the final basis set = -435.4101235676
  Term symbol:  2 (-) A                                     R^2 =  7.80160e-08
  Excitation energy:                                             294.309727 eV
  Term symbol:  3 (-) A                                     R^2 =  8.11471e-08
  Excitation energy:                                             296.141495 eV
  Term symbol:  4 (-) A                                     R^2 =  9.97459e-09
  Excitation energy:                                             302.880442 eV
  Term symbol:  5 (-) A                                     R^2 =  1.67010e-09
  Excitation energy:                                             303.854940 eV
  Term symbol:  6 (-) A                                     R^2 =  1.37370e-08
  Excitation energy:                                             305.106239 eV
  Term symbol:  7 (-) A                                     R^2 =  7.58291e-09
  Excitation energy:                                             305.926940 eV
  Term symbol:  8 (-) A                                     R^2 =  4.90693e-09
  Excitation energy:                                             307.369188 eV
  Term symbol:  9 (-) A                                     R^2 =  4.88952e-09
  Excitation energy:                                             309.093739 eV
  Term symbol:  10 (-) A                                    R^2 =  1.09128e-07
  Excitation energy:                                             312.139426 eV
  Excited state 10 (A)                                             [converged]
  Term symbol:  11 (-) A                                    R^2 =  3.24565e-08
  Excitation energy:                                             313.703536 eV
  Excited state 11 (A)                                             [converged]
  Term symbol:  12 (-) A                                    R^2 =  7.66971e-09
  Excitation energy:                                             314.201288 eV
  Excited state 12 (A)                                             [converged]
  Term symbol:  13 (-) A                                    R^2 =  5.96249e-09
  Excitation energy:                                             314.573168 eV
  Excited state 13 (A)                                             [converged]
  Term symbol:  14 (-) A                                    R^2 =  2.61584e-09
  Excitation energy:                                             314.663578 eV
  Excited state 14 (A)                                             [converged]
  Term symbol:  15 (-) A                                    R^2 =  6.90578e-09
  Excitation energy:                                             315.362203 eV
  Excited state 15 (A)                                             [converged]
  Term symbol:  16 (-) A                                    R^2 =  5.91461e-08
  Excitation energy:                                             320.077841 eV
  Excited state 16 (A)                                             [converged]
  Term symbol:  17 (-) A                                    R^2 =  3.66990e-08
  Excitation energy:                                             320.593356 eV
  Excited state 17 (A)                                         [not converged]
  Term symbol:  18 (-) A                                    R^2 =  4.32754e-05
  Excitation energy:                                             330.391526 eV
  Excited state 18 (A)                                         [not converged]
  Term symbol:  19 (-) A                                    R^2 =  1.13802e-03
  Excitation energy:                                             330.400707 eV
  Excited state 19 (A)                                         [not converged]
  Term symbol:  20 (-) A                                    R^2 =  4.94718e-04
  Excitation energy:                                             330.543367 eV
  Excited state 20 (A)                                         [not converged]
  Term symbol:  21 (-) A                                    R^2 =  1.45089e-03
  Excitation energy:                                             330.544001 eV

                    Orbital Energies (a.u.)
 --------------------------------------------------------------

 Alpha MOs
 -- Occupied --
-26.530 -26.477 -26.451 -26.039 -11.701  -1.948  -1.818  -1.754
 -1.306  -1.091  -0.997  -0.985  -0.943  -0.823  -0.811  -0.809
 -0.771  -0.756  -0.404  -0.403  -0.398

 Beta MOs
 -- Occupied --
-26.530 -26.477 -26.451 -26.039 -11.701  -1.948  -1.818  -1.754
 -1.306  -1.091  -0.997  -0.985  -0.943  -0.823  -0.811  -0.809
 -0.771  -0.756  -0.404  -0.403  -0.398

          Ground-State Mulliken Net Atomic Charges

     Atom                 Charge (a.u.)    Spin (a.u.)
  --------------------------------------------------------
      1 C                     1.200181       0.000000
      2 F                    -0.215686       0.000000
      3 F                    -0.027862       0.000000
      4 F                    -0.783386       0.000000
      5 F                    -0.173247       0.000000
  --------------------------------------------------------
  Sum of atomic charges =     0.000000

                    Cartesian Multipole Moments
 -----------------------------------------------------------------
    Charge (ESU x 10^10)
                 0.0000
    Dipole Moment (Debye)
         X       1.7285      Y       7.1516      Z      -1.9200
       Tot       7.6039
    Quadrupole Moments (Debye-Ang)
        XX     -26.6641     XY      -2.9964     YY       6.0381
        XZ       1.9306     YZ      -2.2984     ZZ     -23.8243

 Total job time:  2133.52s(wall), 3497.42s(cpu)
        *  Thank you very much for using Q-Chem.  Have a nice day.  *
