 Q-Chem 4.3, Q-Chem, Inc., Pleasanton, CA (2015)
 Q-Chem 4.3.0 for Intel X86 Linux

User input:
--------------------------------------------------------------
$comment
XAS calculation for the 2b valence excited for water using cvs-adc(2)-x + 6-311+G* basis set
job 1 - determination of HF orbitals
$end

$molecule
0 1
6  -0.664165  2.742199  -0.106863
9  0.513707  2.450313  0.014577
9  -1.021203  3.755909  0.624079
9  -1.218779  0.056189  0.70047
9  -1.098107  2.889193  -1.268083
$end

$rem
jobtype      sp
sym_ignore true
exchange     hf
basis        6-31G*
unrestricted true
$end

--------------------------------------------------------------

   14    -435.3481466659      4.52E-06 Convergence criterion met
 Total energy in the final basis set = -435.3481466659
 Total job time:  3.57s(wall), 15.39s(cpu)
        *  Thank you very much for using Q-Chem.  Have a nice day.  *
 Q-Chem 4.3, Q-Chem, Inc., Pleasanton, CA (2015)
 Q-Chem 4.3.0 for Intel X86 Linux

User input:
--------------------------------------------------------------

$comment
job3 - cvs-adc(2) calculation
$end

$molecule
read
$end

$rem
mem_total 3000
mem_static 1500
sym_ignore true
scf_guess read
method cvs-adc(2)
basis 6-31G*
ee_singlets 20
cc_rest_occ 5                  !only excitations from the lowest N orbitals
unrestricted  true
max_scf_cycles 200
$end
--------------------------------------------------------------

             Standard Nuclear Orientation (Angstroms)
    I     Atom           X                Y                Z
 ----------------------------------------------------------------
    1      C      -0.6641650000     2.7421990000    -0.1068630000
    2      F       0.5137070000     2.4503130000     0.0145770000
    3      F      -1.0212030000     3.7559090000     0.6240790000
    4      F      -1.2187790000     0.0561890000     0.7004700000
    5      F      -1.0981070000     2.8891930000    -1.2680830000
 ----------------------------------------------------------------

    8    -435.3481467296      6.96E-09 Convergence criterion met
 Total energy in the final basis set = -435.3481467296
  Term symbol:  2 (-) A                                     R^2 =  8.64651e-14
  Excitation energy:                                             293.992582 eV
  Term symbol:  3 (-) A                                     R^2 =  2.51955e-14
  Excitation energy:                                             295.824613 eV
  Term symbol:  4 (-) A                                     R^2 =  4.37830e-13
  Excitation energy:                                             302.260403 eV
  Term symbol:  5 (-) A                                     R^2 =  5.11257e-13
  Excitation energy:                                             303.852905 eV
  Term symbol:  6 (-) A                                     R^2 =  1.77972e-13
  Excitation energy:                                             304.342284 eV
  Term symbol:  7 (-) A                                     R^2 =  1.01625e-13
  Excitation energy:                                             304.675130 eV
  Term symbol:  8 (-) A                                     R^2 =  1.95940e-13
  Excitation energy:                                             305.853822 eV
  Term symbol:  9 (-) A                                     R^2 =  1.23603e-13
  Excitation energy:                                             306.570902 eV
  Term symbol:  10 (-) A                                    R^2 =  4.29653e-13
  Excitation energy:                                             313.222559 eV
  Excited state 10 (A)                                             [converged]
  Term symbol:  11 (-) A                                    R^2 =  2.39825e-13
  Excitation energy:                                             313.536761 eV
  Excited state 11 (A)                                             [converged]
  Term symbol:  12 (-) A                                    R^2 =  4.63407e-13
  Excitation energy:                                             313.749947 eV
  Excited state 12 (A)                                             [converged]
  Term symbol:  13 (-) A                                    R^2 =  3.94141e-13
  Excitation energy:                                             313.901413 eV
  Excited state 13 (A)                                             [converged]
  Term symbol:  14 (-) A                                    R^2 =  3.16983e-13
  Excitation energy:                                             314.265289 eV
  Excited state 14 (A)                                             [converged]
  Term symbol:  15 (-) A                                    R^2 =  7.29050e-13
  Excitation energy:                                             314.380401 eV
  Excited state 15 (A)                                             [converged]
  Term symbol:  16 (-) A                                    R^2 =  4.68011e-13
  Excitation energy:                                             314.510475 eV
  Excited state 16 (A)                                             [converged]
  Term symbol:  17 (-) A                                    R^2 =  5.47221e-13
  Excitation energy:                                             315.560172 eV
  Excited state 17 (A)                                             [converged]
  Term symbol:  18 (-) A                                    R^2 =  2.38681e-12
  Excitation energy:                                             325.564798 eV
  Excited state 18 (A)                                             [converged]
  Term symbol:  19 (-) A                                    R^2 =  1.59010e-12
  Excitation energy:                                             325.640570 eV
  Excited state 19 (A)                                         [not converged]
  Term symbol:  20 (-) A                                    R^2 =  1.19590e-04
  Excitation energy:                                             331.209824 eV
  Excited state 20 (A)                                         [not converged]
  Term symbol:  21 (-) A                                    R^2 =  2.29108e-05
  Excitation energy:                                             331.347660 eV

                    Orbital Energies (a.u.)
 --------------------------------------------------------------

 Alpha MOs
 -- Occupied --
-26.518 -26.515 -26.497 -26.096 -11.726  -1.928  -1.832  -1.792
 -1.317  -1.102  -1.005  -0.995  -0.946  -0.854  -0.837  -0.818
 -0.804  -0.789  -0.435  -0.434  -0.364

 Beta MOs
 -- Occupied --
-26.518 -26.515 -26.497 -26.096 -11.726  -1.928  -1.832  -1.792
 -1.317  -1.102  -1.005  -0.995  -0.946  -0.854  -0.837  -0.818
 -0.804  -0.789  -0.435  -0.434  -0.364

          Ground-State Mulliken Net Atomic Charges

     Atom                 Charge (a.u.)    Spin (a.u.)
  --------------------------------------------------------
      1 C                     1.121078       0.000000
      2 F                    -0.113176       0.000000
      3 F                    -0.222666       0.000000
      4 F                    -0.624325       0.000000
      5 F                    -0.160910       0.000000
  --------------------------------------------------------
  Sum of atomic charges =     0.000000

                    Cartesian Multipole Moments
 -----------------------------------------------------------------
    Charge (ESU x 10^10)
                 0.0000
    Dipole Moment (Debye)
         X       1.7393      Y       7.5547      Z      -2.4301
       Tot       8.1243
    Quadrupole Moments (Debye-Ang)
        XX     -26.2670     XY      -4.3102     YY      -2.6643
        XZ       2.6637     YZ      -1.5458     ZZ     -24.7868

 Total job time:  1859.21s(wall), 3053.13s(cpu)
        *  Thank you very much for using Q-Chem.  Have a nice day.  *
