 Q-Chem 4.3, Q-Chem, Inc., Pleasanton, CA (2015)
 Q-Chem 4.3.0 for Intel X86 Linux

User input:
--------------------------------------------------------------
$comment
XAS calculation for the 2b valence excited for water using cvs-adc(2)-x + 6-311+G* basis set
job 1 - determination of HF orbitals
$end

$molecule
0 1
6  -0.665344  2.40128  -0.029155
9  0.595265  2.334363  0.006865
9  -1.129811  3.294055  0.779454
9  -1.125937  1.167483  0.426146
9  -1.133831  2.554387  -1.200335
$end

$rem
jobtype      sp
sym_ignore true
exchange     hf
basis        6-31G*
unrestricted true
$end

--------------------------------------------------------------

    8    -435.6358295171      3.55E-06 Convergence criterion met
 Total energy in the final basis set = -435.6358295171
 Total job time:  2.33s(wall), 9.39s(cpu)
        *  Thank you very much for using Q-Chem.  Have a nice day.  *
 Q-Chem 4.3, Q-Chem, Inc., Pleasanton, CA (2015)
 Q-Chem 4.3.0 for Intel X86 Linux

User input:
--------------------------------------------------------------

$comment
job3 - cvs-adc(2) calculation
$end

$molecule
read
$end

$rem
mem_total 3000
mem_static 1500
sym_ignore true
scf_guess read
method cvs-adc(2)
basis 6-31G*
ee_singlets 20
cc_rest_occ 5                  !only excitations from the lowest N orbitals
unrestricted  true
max_scf_cycles 200
$end
--------------------------------------------------------------

             Standard Nuclear Orientation (Angstroms)
    I     Atom           X                Y                Z
 ----------------------------------------------------------------
    1      C      -0.6653440000     2.4012800000    -0.0291550000
    2      F       0.5952650000     2.3343630000     0.0068650000
    3      F      -1.1298110000     3.2940550000     0.7794540000
    4      F      -1.1259370000     1.1674830000     0.4261460000
    5      F      -1.1338310000     2.5543870000    -1.2003350000
 ----------------------------------------------------------------

    5    -435.6358295843      4.65E-09 Convergence criterion met
 Total energy in the final basis set = -435.6358295843
  Term symbol:  2 (-) A                                     R^2 =  7.53433e-14
  Excitation energy:                                             299.881946 eV
  Term symbol:  3 (-) A                                     R^2 =  1.07814e-13
  Excitation energy:                                             302.028878 eV
  Term symbol:  4 (-) A                                     R^2 =  5.97849e-13
  Excitation energy:                                             302.174687 eV
  Term symbol:  5 (-) A                                     R^2 =  1.02468e-13
  Excitation energy:                                             302.812349 eV
  Term symbol:  6 (-) A                                     R^2 =  3.50979e-13
  Excitation energy:                                             304.080232 eV
  Term symbol:  7 (-) A                                     R^2 =  7.99795e-13
  Excitation energy:                                             304.346475 eV
  Term symbol:  8 (-) A                                     R^2 =  5.90654e-14
  Excitation energy:                                             304.982852 eV
  Term symbol:  9 (-) A                                     R^2 =  1.47854e-13
  Excitation energy:                                             306.573170 eV
  Term symbol:  10 (-) A                                    R^2 =  5.94645e-14
  Excitation energy:                                             312.734561 eV
  Excited state 10 (A)                                             [converged]
  Term symbol:  11 (-) A                                    R^2 =  1.45670e-13
  Excitation energy:                                             313.510519 eV
  Excited state 11 (A)                                             [converged]
  Term symbol:  12 (-) A                                    R^2 =  5.43366e-13
  Excitation energy:                                             313.702694 eV
  Excited state 12 (A)                                             [converged]
  Term symbol:  13 (-) A                                    R^2 =  4.66713e-14
  Excitation energy:                                             313.763490 eV
  Excited state 13 (A)                                             [converged]
  Term symbol:  14 (-) A                                    R^2 =  1.23418e-13
  Excitation energy:                                             314.093590 eV
  Excited state 14 (A)                                             [converged]
  Term symbol:  15 (-) A                                    R^2 =  1.53836e-13
  Excitation energy:                                             314.164271 eV
  Excited state 15 (A)                                             [converged]
  Term symbol:  16 (-) A                                    R^2 =  1.38375e-13
  Excitation energy:                                             314.216156 eV
  Excited state 16 (A)                                             [converged]
  Term symbol:  17 (-) A                                    R^2 =  6.62749e-13
  Excitation energy:                                             314.684073 eV
  Excited state 17 (A)                                             [converged]
  Term symbol:  18 (-) A                                    R^2 =  7.24610e-07
  Excitation energy:                                             330.216121 eV
  Excited state 18 (A)                                             [converged]
  Term symbol:  19 (-) A                                    R^2 =  1.36779e-07
  Excitation energy:                                             330.239128 eV
  Excited state 19 (A)                                         [not converged]
  Term symbol:  20 (-) A                                    R^2 =  4.61933e-06
  Excitation energy:                                             330.256255 eV
  Excited state 20 (A)                                             [converged]
  Term symbol:  21 (-) A                                    R^2 =  2.30744e-07
  Excitation energy:                                             330.282067 eV

                    Orbital Energies (a.u.)
 --------------------------------------------------------------

 Alpha MOs
 -- Occupied --
-26.392 -26.390 -26.382 -26.334 -11.607  -1.823  -1.709  -1.694
 -1.624  -1.009  -0.903  -0.899  -0.881  -0.764  -0.759  -0.721
 -0.714  -0.686  -0.676  -0.655  -0.654

 Beta MOs
 -- Occupied --
-26.392 -26.390 -26.382 -26.334 -11.607  -1.823  -1.709  -1.694
 -1.624  -1.009  -0.903  -0.899  -0.881  -0.764  -0.759  -0.721
 -0.714  -0.686  -0.676  -0.655  -0.654

          Ground-State Mulliken Net Atomic Charges

     Atom                 Charge (a.u.)    Spin (a.u.)
  --------------------------------------------------------
      1 C                     1.303357       0.000000
      2 F                    -0.284515       0.000000
      3 F                    -0.314930       0.000000
      4 F                    -0.410754       0.000000
      5 F                    -0.293158       0.000000
  --------------------------------------------------------
  Sum of atomic charges =     0.000000

                    Cartesian Multipole Moments
 -----------------------------------------------------------------
    Charge (ESU x 10^10)
                 0.0000
    Dipole Moment (Debye)
         X       0.3820      Y       0.7051      Z      -0.3667
       Tot       0.8818
    Quadrupole Moments (Debye-Ang)
        XX     -25.2160     XY       0.2218     YY     -22.0631
        XZ       0.3467     YZ      -0.6846     ZZ     -24.7512

 Total job time:  2000.07s(wall), 3250.50s(cpu)
        *  Thank you very much for using Q-Chem.  Have a nice day.  *
