 Q-Chem 4.3, Q-Chem, Inc., Pleasanton, CA (2015)
 Q-Chem 4.3.0 for Intel X86 Linux

User input:
--------------------------------------------------------------
$comment
XAS calculation for the 2b valence excited for water using cvs-adc(2)-x + 6-311+G* basis set
job 1 - determination of HF orbitals
$end

$molecule
0 1
6  -0.372149  2.858207  -0.283875
9  0.798449  2.762551  -0.211959
9  -1.023616  3.312496  0.711727
9  -1.833808  0.154184  1.04401
9  -0.92779  2.833776  -1.366144
$end

$rem
jobtype      sp
sym_ignore true
exchange     hf
basis        6-31G*
unrestricted true
$end

--------------------------------------------------------------

   12    -435.3238725728      2.48E-06 Convergence criterion met
 Total energy in the final basis set = -435.3238725728
 Total job time:  3.15s(wall), 13.90s(cpu)
        *  Thank you very much for using Q-Chem.  Have a nice day.  *
 Q-Chem 4.3, Q-Chem, Inc., Pleasanton, CA (2015)
 Q-Chem 4.3.0 for Intel X86 Linux

User input:
--------------------------------------------------------------

$comment
job3 - cvs-adc(2) calculation
$end

$molecule
read
$end

$rem
mem_total 3000
mem_static 1500
sym_ignore true
scf_guess read
method cvs-adc(2)
basis 6-31G*
ee_singlets 20
cc_rest_occ 5                  !only excitations from the lowest N orbitals
unrestricted  true
max_scf_cycles 200
$end
--------------------------------------------------------------

             Standard Nuclear Orientation (Angstroms)
    I     Atom           X                Y                Z
 ----------------------------------------------------------------
    1      C      -0.3721490000     2.8582070000    -0.2838750000
    2      F       0.7984490000     2.7625510000    -0.2119590000
    3      F      -1.0236160000     3.3124960000     0.7117270000
    4      F      -1.8338080000     0.1541840000     1.0440100000
    5      F      -0.9277900000     2.8337760000    -1.3661440000
 ----------------------------------------------------------------

    9    -435.3238728206      3.01E-09 Convergence criterion met
 Total energy in the final basis set = -435.3238728206
  Term symbol:  2 (-) A                                     R^2 =  1.88561e-13
  Excitation energy:                                             294.591101 eV
  Term symbol:  3 (-) A                                     R^2 =  1.60745e-13
  Excitation energy:                                             296.509828 eV
  Term symbol:  4 (-) A                                     R^2 =  3.94120e-13
  Excitation energy:                                             302.674144 eV
  Term symbol:  5 (-) A                                     R^2 =  1.59375e-13
  Excitation energy:                                             304.386164 eV
  Term symbol:  6 (-) A                                     R^2 =  2.31111e-13
  Excitation energy:                                             304.857462 eV
  Term symbol:  7 (-) A                                     R^2 =  7.16860e-13
  Excitation energy:                                             306.431427 eV
  Term symbol:  8 (-) A                                     R^2 =  6.38350e-13
  Excitation energy:                                             306.924656 eV
  Term symbol:  9 (-) A                                     R^2 =  4.01246e-13
  Excitation energy:                                             308.494539 eV
  Term symbol:  10 (-) A                                    R^2 =  7.05885e-13
  Excitation energy:                                             313.102554 eV
  Excited state 10 (A)                                             [converged]
  Term symbol:  11 (-) A                                    R^2 =  1.67444e-12
  Excitation energy:                                             314.184079 eV
  Excited state 11 (A)                                             [converged]
  Term symbol:  12 (-) A                                    R^2 =  7.94521e-13
  Excitation energy:                                             314.248259 eV
  Excited state 12 (A)                                             [converged]
  Term symbol:  13 (-) A                                    R^2 =  1.97038e-12
  Excitation energy:                                             314.827662 eV
  Excited state 13 (A)                                             [converged]
  Term symbol:  14 (-) A                                    R^2 =  2.54152e-13
  Excitation energy:                                             314.961047 eV
  Excited state 14 (A)                                             [converged]
  Term symbol:  15 (-) A                                    R^2 =  9.60712e-13
  Excitation energy:                                             315.294379 eV
  Excited state 15 (A)                                             [converged]
  Term symbol:  16 (-) A                                    R^2 =  1.29698e-12
  Excitation energy:                                             315.396779 eV
  Excited state 16 (A)                                             [converged]
  Term symbol:  17 (-) A                                    R^2 =  2.01224e-13
  Excitation energy:                                             316.179286 eV
  Excited state 17 (A)                                             [converged]
  Term symbol:  18 (-) A                                    R^2 =  6.03233e-08
  Excitation energy:                                             326.334123 eV
  Excited state 18 (A)                                             [converged]
  Term symbol:  19 (-) A                                    R^2 =  3.55895e-11
  Excitation energy:                                             326.348936 eV
  Excited state 19 (A)                                         [not converged]
  Term symbol:  20 (-) A                                    R^2 =  2.89136e-01
  Excitation energy:                                             327.848696 eV
  Excited state 20 (A)                                         [not converged]
  Term symbol:  21 (-) A                                    R^2 =  1.42104e-02
  Excitation energy:                                             331.472213 eV

                    Orbital Energies (a.u.)
 --------------------------------------------------------------

 Alpha MOs
 -- Occupied --
-26.605 -26.582 -26.549 -25.929 -11.782  -2.019  -1.920  -1.859
 -1.182  -1.168  -1.085  -1.071  -1.028  -0.912  -0.904  -0.896
 -0.858  -0.848  -0.295  -0.295  -0.271

 Beta MOs
 -- Occupied --
-26.605 -26.582 -26.549 -25.929 -11.782  -2.019  -1.920  -1.859
 -1.182  -1.168  -1.085  -1.071  -1.028  -0.912  -0.904  -0.896
 -0.858  -0.848  -0.295  -0.295  -0.271

          Ground-State Mulliken Net Atomic Charges

     Atom                 Charge (a.u.)    Spin (a.u.)
  --------------------------------------------------------
      1 C                     1.184590       0.000000
      2 F                    -0.056022       0.000000
      3 F                    -0.147532       0.000000
      4 F                    -0.878792       0.000000
      5 F                    -0.102244       0.000000
  --------------------------------------------------------
  Sum of atomic charges =     0.000000

                    Cartesian Multipole Moments
 -----------------------------------------------------------------
    Charge (ESU x 10^10)
                 0.0000
    Dipole Moment (Debye)
         X       6.3207      Y      11.0677      Z      -5.6321
       Tot      13.9344
    Quadrupole Moments (Debye-Ang)
        XX     -35.9456     XY      -2.3169     YY      10.7951
        XZ       8.3782     YZ      -4.5301     ZZ     -26.7327

 Total job time:  1871.24s(wall), 3111.39s(cpu)
        *  Thank you very much for using Q-Chem.  Have a nice day.  *
