 Q-Chem 4.3, Q-Chem, Inc., Pleasanton, CA (2015)
 Q-Chem 4.3.0 for Intel X86 Linux

User input:
--------------------------------------------------------------
$comment
XAS calculation for the 2b valence excited for water using cvs-adc(2)-x + 6-311+G* basis set
job 1 - determination of HF orbitals
$end

$molecule
0 1
6  -0.499181  2.870929  -0.198208
9  0.508188  2.259324  0.047219
9  -1.156161  3.359133  0.800811
9  -1.111782  0.902554  0.477626
9  -1.169329  2.550448  -1.19611
$end

$rem
jobtype      sp
sym_ignore true
exchange     hf
basis        6-31G*
unrestricted true
$end

--------------------------------------------------------------

   10    -435.3845227241      6.06E-06 Convergence criterion met
 Total energy in the final basis set = -435.3845227241
 Total job time:  2.87s(wall), 10.20s(cpu)
        *  Thank you very much for using Q-Chem.  Have a nice day.  *
 Q-Chem 4.3, Q-Chem, Inc., Pleasanton, CA (2015)
 Q-Chem 4.3.0 for Intel X86 Linux

User input:
--------------------------------------------------------------

$comment
job3 - cvs-adc(2) calculation
$end

$molecule
read
$end

$rem
mem_total 3000
mem_static 1500
sym_ignore true
scf_guess read
method cvs-adc(2)
basis 6-31G*
ee_singlets 20
cc_rest_occ 5                  !only excitations from the lowest N orbitals
unrestricted  true
max_scf_cycles 200
$end
--------------------------------------------------------------

             Standard Nuclear Orientation (Angstroms)
    I     Atom           X                Y                Z
 ----------------------------------------------------------------
    1      C      -0.4991810000     2.8709290000    -0.1982080000
    2      F       0.5081880000     2.2593240000     0.0472190000
    3      F      -1.1561610000     3.3591330000     0.8008110000
    4      F      -1.1117820000     0.9025540000     0.4776260000
    5      F      -1.1693290000     2.5504480000    -1.1961100000
 ----------------------------------------------------------------

    7    -435.3845228037      8.40E-09 Convergence criterion met
 Total energy in the final basis set = -435.3845228037
  Term symbol:  2 (-) A                                     R^2 =  1.09341e-12
  Excitation energy:                                             293.547812 eV
  Term symbol:  3 (-) A                                     R^2 =  4.59925e-13
  Excitation energy:                                             295.365809 eV
  Term symbol:  4 (-) A                                     R^2 =  3.61437e-13
  Excitation energy:                                             302.928162 eV
  Term symbol:  5 (-) A                                     R^2 =  1.01874e-12
  Excitation energy:                                             304.272082 eV
  Term symbol:  6 (-) A                                     R^2 =  2.06625e-13
  Excitation energy:                                             305.116710 eV
  Term symbol:  7 (-) A                                     R^2 =  5.39137e-13
  Excitation energy:                                             305.600676 eV
  Term symbol:  8 (-) A                                     R^2 =  1.70003e-13
  Excitation energy:                                             306.332946 eV
  Term symbol:  9 (-) A                                     R^2 =  1.53695e-13
  Excitation energy:                                             307.535432 eV
  Term symbol:  10 (-) A                                    R^2 =  5.13937e-13
  Excitation energy:                                             312.089426 eV
  Excited state 10 (A)                                             [converged]
  Term symbol:  11 (-) A                                    R^2 =  2.29770e-13
  Excitation energy:                                             313.583804 eV
  Excited state 11 (A)                                             [converged]
  Term symbol:  12 (-) A                                    R^2 =  7.65474e-13
  Excitation energy:                                             314.297858 eV
  Excited state 12 (A)                                             [converged]
  Term symbol:  13 (-) A                                    R^2 =  1.63555e-13
  Excitation energy:                                             314.341446 eV
  Excited state 13 (A)                                             [converged]
  Term symbol:  14 (-) A                                    R^2 =  1.63256e-13
  Excitation energy:                                             314.725071 eV
  Excited state 14 (A)                                             [converged]
  Term symbol:  15 (-) A                                    R^2 =  2.59150e-13
  Excitation energy:                                             314.900444 eV
  Excited state 15 (A)                                             [converged]
  Term symbol:  16 (-) A                                    R^2 =  9.31464e-13
  Excitation energy:                                             320.209530 eV
  Excited state 16 (A)                                             [converged]
  Term symbol:  17 (-) A                                    R^2 =  2.21118e-13
  Excitation energy:                                             320.753349 eV
  Excited state 17 (A)                                             [converged]
  Term symbol:  18 (-) A                                    R^2 =  6.73316e-07
  Excitation energy:                                             331.836375 eV
  Excited state 18 (A)                                             [converged]
  Term symbol:  19 (-) A                                    R^2 =  3.98078e-07
  Excitation energy:                                             332.008221 eV
  Excited state 19 (A)                                         [not converged]
  Term symbol:  20 (-) A                                    R^2 =  8.49887e-05
  Excitation energy:                                             332.186788 eV
  Excited state 20 (A)                                         [not converged]
  Term symbol:  21 (-) A                                    R^2 =  4.73890e-05
  Excitation energy:                                             332.295562 eV

                    Orbital Energies (a.u.)
 --------------------------------------------------------------

 Alpha MOs
 -- Occupied --
-26.509 -26.502 -26.489 -26.001 -11.721  -1.914  -1.821  -1.787
 -1.272  -1.085  -0.994  -0.989  -0.929  -0.830  -0.822  -0.807
 -0.795  -0.780  -0.372  -0.371  -0.368

 Beta MOs
 -- Occupied --
-26.509 -26.502 -26.489 -26.001 -11.721  -1.914  -1.821  -1.787
 -1.272  -1.085  -0.994  -0.989  -0.929  -0.830  -0.822  -0.807
 -0.795  -0.780  -0.372  -0.371  -0.368

          Ground-State Mulliken Net Atomic Charges

     Atom                 Charge (a.u.)    Spin (a.u.)
  --------------------------------------------------------
      1 C                     1.229746       0.000000
      2 F                    -0.064690       0.000000
      3 F                    -0.195707       0.000000
      4 F                    -0.833019       0.000000
      5 F                    -0.136330       0.000000
  --------------------------------------------------------
  Sum of atomic charges =     0.000000

                    Cartesian Multipole Moments
 -----------------------------------------------------------------
    Charge (ESU x 10^10)
                 0.0000
    Dipole Moment (Debye)
         X       2.7741      Y       7.5861      Z      -2.8218
       Tot       8.5561
    Quadrupole Moments (Debye-Ang)
        XX     -27.0570     XY      -0.3119     YY       6.2398
        XZ       2.5055     YZ      -4.8103     ZZ     -23.7142

 Total job time:  2081.04s(wall), 3396.37s(cpu)
        *  Thank you very much for using Q-Chem.  Have a nice day.  *
