 Q-Chem 4.3, Q-Chem, Inc., Pleasanton, CA (2015)
 Q-Chem 4.3.0 for Intel X86 Linux

User input:
--------------------------------------------------------------
$comment
XAS calculation for the 2b valence excited for water using cvs-adc(2)-x + 6-311+G* basis set
job 1 - determination of HF orbitals
$end

$molecule
0 1
6  -0.601118  2.825401  -0.149848
9  0.617136  2.474639  -0.040817
9  -1.091243  3.481094  0.709013
9  -1.331565  0.409724  0.702905
9  -1.095011  2.752652  -1.263948
$end

$rem
jobtype      sp
sym_ignore true
exchange     hf
basis        6-31G*
unrestricted true
$end

--------------------------------------------------------------

   10    -435.3960093450      4.51E-06 Convergence criterion met
 Total energy in the final basis set = -435.3960093450

                    Orbital Energies (a.u.)
 --------------------------------------------------------------

 Alpha MOs
 -- Occupied --
-26.556 -26.538 -26.508 -26.023 -11.742  -1.967  -1.874  -1.820
 -1.263  -1.124  -1.042  -1.029  -0.979  -0.871  -0.863  -0.853
 -0.823  -0.809  -0.375  -0.375  -0.347

 Beta MOs
 -- Occupied --
-26.556 -26.538 -26.508 -26.023 -11.742  -1.967  -1.874  -1.820
 -1.263  -1.124  -1.042  -1.029  -0.979  -0.871  -0.863  -0.853
 -0.823  -0.809  -0.375  -0.375  -0.347

          Ground-State Mulliken Net Atomic Charges

     Atom                 Charge (a.u.)    Spin (a.u.)
  --------------------------------------------------------
      1 C                     1.134364       0.000000
      2 F                    -0.175842       0.000000
      3 F                    -0.076077       0.000000
      4 F                    -0.761710       0.000000
      5 F                    -0.120735       0.000000
  --------------------------------------------------------
  Sum of atomic charges =     0.000000

                    Cartesian Multipole Moments
 -----------------------------------------------------------------
    Charge (ESU x 10^10)
                 0.0000
    Dipole Moment (Debye)
         X       2.3515      Y       8.9488      Z      -2.9961
       Tot       9.7256
    Quadrupole Moments (Debye-Ang)
        XX     -27.8047     XY      -4.8799     YY       7.2752
        XZ       3.5457     YZ      -2.5056     ZZ     -24.4462

 Total job time:  2.70s(wall), 10.30s(cpu)
        *  Thank you very much for using Q-Chem.  Have a nice day.  *
 Q-Chem 4.3, Q-Chem, Inc., Pleasanton, CA (2015)
 Q-Chem 4.3.0 for Intel X86 Linux

User input:
--------------------------------------------------------------

$comment
job3 - cvs-adc(2) calculation
$end

$molecule
read
$end

$rem
mem_total 3000
mem_static 1500
sym_ignore true
scf_guess read
method cvs-adc(2)
basis 6-31G*
ee_singlets 20
cc_rest_occ 5                  !only excitations from the lowest N orbitals
unrestricted  true
max_scf_cycles 200
$end
--------------------------------------------------------------

             Standard Nuclear Orientation (Angstroms)
    I     Atom           X                Y                Z
 ----------------------------------------------------------------
    1      C      -0.6011180000     2.8254010000    -0.1498480000
    2      F       0.6171360000     2.4746390000    -0.0408170000
    3      F      -1.0912430000     3.4810940000     0.7090130000
    4      F      -1.3315650000     0.4097240000     0.7029050000
    5      F      -1.0950110000     2.7526520000    -1.2639480000
 ----------------------------------------------------------------

    7    -435.3960094433      6.73E-09 Convergence criterion met
 Total energy in the final basis set = -435.3960094433
