 Q-Chem 4.3, Q-Chem, Inc., Pleasanton, CA (2015)
 Q-Chem 4.3.0 for Intel X86 Linux

User input:
--------------------------------------------------------------
$comment
XAS calculation for the 2b valence excited for water using cvs-adc(2)-x + 6-311+G* basis set
job 1 - determination of HF orbitals
$end

$molecule
0 1
6  -0.53152  2.667057  -0.173267
9  0.843018  2.83598  -0.221555
9  -1.023935  3.16252  0.70205
9  -1.813319  0.466585  0.972095
9  -0.935943  2.800024  -1.341439
$end

$rem
jobtype      sp
sym_ignore true
exchange     hf
basis        6-31G*
unrestricted true
$end

--------------------------------------------------------------

   12    -435.3236183845      6.46E-06 Convergence criterion met
 Total energy in the final basis set = -435.3236183845
 Total job time:  3.22s(wall), 13.54s(cpu)
        *  Thank you very much for using Q-Chem.  Have a nice day.  *
 Q-Chem 4.3, Q-Chem, Inc., Pleasanton, CA (2015)
 Q-Chem 4.3.0 for Intel X86 Linux

User input:
--------------------------------------------------------------

$comment
job3 - cvs-adc(2) calculation
$end

$molecule
read
$end

$rem
mem_total 3000
mem_static 1500
sym_ignore true
scf_guess read
method cvs-adc(2)
basis 6-31G*
ee_singlets 20
cc_rest_occ 5                  !only excitations from the lowest N orbitals
unrestricted  true
max_scf_cycles 200
$end
--------------------------------------------------------------

             Standard Nuclear Orientation (Angstroms)
    I     Atom           X                Y                Z
 ----------------------------------------------------------------
    1      C      -0.5315200000     2.6670570000    -0.1732670000
    2      F       0.8430180000     2.8359800000    -0.2215550000
    3      F      -1.0239350000     3.1625200000     0.7020500000
    4      F      -1.8133190000     0.4665850000     0.9720950000
    5      F      -0.9359430000     2.8000240000    -1.3414390000
 ----------------------------------------------------------------

    9    -435.3236187504      4.04E-09 Convergence criterion met
 Total energy in the final basis set = -435.3236187504
  Term symbol:  2 (-) A                                     R^2 =  1.31801e-13
  Excitation energy:                                             294.169525 eV
  Term symbol:  3 (-) A                                     R^2 =  1.74303e-13
  Excitation energy:                                             296.062814 eV
  Term symbol:  4 (-) A                                     R^2 =  9.41362e-14
  Excitation energy:                                             300.801930 eV
  Term symbol:  5 (-) A                                     R^2 =  5.44006e-13
  Excitation energy:                                             302.969303 eV
  Term symbol:  6 (-) A                                     R^2 =  3.05913e-13
  Excitation energy:                                             304.042719 eV
  Term symbol:  7 (-) A                                     R^2 =  7.39090e-13
  Excitation energy:                                             305.987587 eV
  Term symbol:  8 (-) A                                     R^2 =  1.06619e-13
  Excitation energy:                                             307.933744 eV
  Term symbol:  9 (-) A                                     R^2 =  1.74237e-13
  Excitation energy:                                             309.281068 eV
  Term symbol:  10 (-) A                                    R^2 =  2.75369e-13
  Excitation energy:                                             313.431247 eV
  Excited state 10 (A)                                             [converged]
  Term symbol:  11 (-) A                                    R^2 =  2.69208e-13
  Excitation energy:                                             314.134333 eV
  Excited state 11 (A)                                             [converged]
  Term symbol:  12 (-) A                                    R^2 =  7.34066e-14
  Excitation energy:                                             314.159196 eV
  Excited state 12 (A)                                             [converged]
  Term symbol:  13 (-) A                                    R^2 =  1.70393e-13
  Excitation energy:                                             314.254593 eV
  Excited state 13 (A)                                             [converged]
  Term symbol:  14 (-) A                                    R^2 =  9.69036e-14
  Excitation energy:                                             314.794209 eV
  Excited state 14 (A)                                             [converged]
  Term symbol:  15 (-) A                                    R^2 =  3.65647e-14
  Excitation energy:                                             315.031223 eV
  Excited state 15 (A)                                             [converged]
  Term symbol:  16 (-) A                                    R^2 =  1.98589e-13
  Excitation energy:                                             315.511962 eV
  Excited state 16 (A)                                             [converged]
  Term symbol:  17 (-) A                                    R^2 =  5.92492e-13
  Excitation energy:                                             316.879446 eV
  Excited state 17 (A)                                             [converged]
  Term symbol:  18 (-) A                                    R^2 =  6.33782e-10
  Excitation energy:                                             326.474141 eV
  Excited state 18 (A)                                             [converged]
  Term symbol:  19 (-) A                                    R^2 =  1.80638e-10
  Excitation energy:                                             326.524945 eV
  Excited state 19 (A)                                         [not converged]
  Term symbol:  20 (-) A                                    R^2 =  1.60713e-06
  Excitation energy:                                             330.393436 eV
  Excited state 20 (A)                                         [not converged]
  Term symbol:  21 (-) A                                    R^2 =  6.73857e-06
  Excitation energy:                                             330.605097 eV

                    Orbital Energies (a.u.)
 --------------------------------------------------------------

 Alpha MOs
 -- Occupied --
-26.567 -26.523 -26.469 -26.070 -11.736  -2.001  -1.864  -1.747
 -1.299  -1.129  -1.038  -1.017  -0.983  -0.869  -0.844  -0.817
 -0.786  -0.775  -0.415  -0.414  -0.360

 Beta MOs
 -- Occupied --
-26.567 -26.523 -26.469 -26.070 -11.736  -2.001  -1.864  -1.747
 -1.299  -1.129  -1.038  -1.017  -0.983  -0.869  -0.844  -0.817
 -0.786  -0.775  -0.415  -0.414  -0.360

          Ground-State Mulliken Net Atomic Charges

     Atom                 Charge (a.u.)    Spin (a.u.)
  --------------------------------------------------------
      1 C                     1.076207       0.000000
      2 F                    -0.292139       0.000000
      3 F                     0.046229       0.000000
      4 F                    -0.680376       0.000000
      5 F                    -0.149921       0.000000
  --------------------------------------------------------
  Sum of atomic charges =     0.000000

                    Cartesian Multipole Moments
 -----------------------------------------------------------------
    Charge (ESU x 10^10)
                 0.0000
    Dipole Moment (Debye)
         X       3.1255      Y       7.0823      Z      -3.1393
       Tot       8.3536
    Quadrupole Moments (Debye-Ang)
        XX     -32.5458     XY      -4.5617     YY      -0.0890
        XZ       5.5178     YZ      -1.5176     ZZ     -25.8312

 Total job time:  2132.19s(wall), 3502.34s(cpu)
        *  Thank you very much for using Q-Chem.  Have a nice day.  *
