 Q-Chem 4.3, Q-Chem, Inc., Pleasanton, CA (2015)
 Q-Chem 4.3.0 for Intel X86 Linux

User input:
--------------------------------------------------------------
$comment
XAS calculation for the 2b valence excited for water using cvs-adc(2)-x + 6-311+G* basis set
job 1 - determination of HF orbitals
$end

$molecule
0 1
6  -0.648429  2.408223  -0.053584
9  0.596674  2.348584  0.000508
9  -1.137419  3.280733  0.791114
9  -1.150315  1.175455  0.439198
9  -1.13018  2.55229  -1.19726
$end

$rem
jobtype      sp
sym_ignore true
exchange     hf
basis        6-31G*
unrestricted true
$end

--------------------------------------------------------------

    8    -435.6283367024      4.02E-06 Convergence criterion met
 Total energy in the final basis set = -435.6283367024
 Total job time:  2.33s(wall), 8.99s(cpu)
        *  Thank you very much for using Q-Chem.  Have a nice day.  *
 Q-Chem 4.3, Q-Chem, Inc., Pleasanton, CA (2015)
 Q-Chem 4.3.0 for Intel X86 Linux

User input:
--------------------------------------------------------------

$comment
job3 - cvs-adc(2) calculation
$end

$molecule
read
$end

$rem
mem_total 3000
mem_static 1500
sym_ignore true
scf_guess read
method cvs-adc(2)
basis 6-31G*
ee_singlets 20
cc_rest_occ 5                  !only excitations from the lowest N orbitals
unrestricted  true
max_scf_cycles 200
$end
--------------------------------------------------------------

             Standard Nuclear Orientation (Angstroms)
    I     Atom           X                Y                Z
 ----------------------------------------------------------------
    1      C      -0.6484290000     2.4082230000    -0.0535840000
    2      F       0.5966740000     2.3485840000     0.0005080000
    3      F      -1.1374190000     3.2807330000     0.7911140000
    4      F      -1.1503150000     1.1754550000     0.4391980000
    5      F      -1.1301800000     2.5522900000    -1.1972600000
 ----------------------------------------------------------------

    5    -435.6283367456      6.60E-09 Convergence criterion met
 Total energy in the final basis set = -435.6283367456
  Term symbol:  2 (-) A                                     R^2 =  3.05255e-14
  Excitation energy:                                             299.440544 eV
  Term symbol:  3 (-) A                                     R^2 =  6.60140e-13
  Excitation energy:                                             301.573015 eV
  Term symbol:  4 (-) A                                     R^2 =  1.81029e-13
  Excitation energy:                                             302.007150 eV
  Term symbol:  5 (-) A                                     R^2 =  5.51881e-14
  Excitation energy:                                             303.477091 eV
  Term symbol:  6 (-) A                                     R^2 =  2.10532e-13
  Excitation energy:                                             304.194456 eV
  Term symbol:  7 (-) A                                     R^2 =  1.81630e-13
  Excitation energy:                                             304.229420 eV
  Term symbol:  8 (-) A                                     R^2 =  1.40535e-13
  Excitation energy:                                             305.651108 eV
  Term symbol:  9 (-) A                                     R^2 =  6.88983e-14
  Excitation energy:                                             306.565879 eV
  Term symbol:  10 (-) A                                    R^2 =  6.60140e-14
  Excitation energy:                                             312.552101 eV
  Excited state 10 (A)                                             [converged]
  Term symbol:  11 (-) A                                    R^2 =  1.10148e-13
  Excitation energy:                                             313.419318 eV
  Excited state 11 (A)                                             [converged]
  Term symbol:  12 (-) A                                    R^2 =  4.39296e-14
  Excitation energy:                                             313.585525 eV
  Excited state 12 (A)                                             [converged]
  Term symbol:  13 (-) A                                    R^2 =  1.34233e-13
  Excitation energy:                                             313.875100 eV
  Excited state 13 (A)                                             [converged]
  Term symbol:  14 (-) A                                    R^2 =  1.14798e-13
  Excitation energy:                                             313.997054 eV
  Excited state 14 (A)                                             [converged]
  Term symbol:  15 (-) A                                    R^2 =  6.70041e-14
  Excitation energy:                                             314.285536 eV
  Excited state 15 (A)                                             [converged]
  Term symbol:  16 (-) A                                    R^2 =  2.65683e-13
  Excitation energy:                                             314.579085 eV
  Excited state 16 (A)                                             [converged]
  Term symbol:  17 (-) A                                    R^2 =  4.80004e-13
  Excitation energy:                                             315.000269 eV
  Excited state 17 (A)                                             [converged]
  Term symbol:  18 (-) A                                    R^2 =  2.94981e-07
  Excitation energy:                                             330.215717 eV
  Excited state 18 (A)                                             [converged]
  Term symbol:  19 (-) A                                    R^2 =  4.24447e-07
  Excitation energy:                                             330.243769 eV
  Excited state 19 (A)                                         [not converged]
  Term symbol:  20 (-) A                                    R^2 =  6.92396e-06
  Excitation energy:                                             330.356333 eV
  Excited state 20 (A)                                             [converged]
  Term symbol:  21 (-) A                                    R^2 =  2.36397e-07
  Excitation energy:                                             330.380219 eV

                    Orbital Energies (a.u.)
 --------------------------------------------------------------

 Alpha MOs
 -- Occupied --
-26.403 -26.400 -26.372 -26.322 -11.608  -1.831  -1.727  -1.687
 -1.608  -1.012  -0.911  -0.900  -0.882  -0.767  -0.760  -0.730
 -0.712  -0.687  -0.666  -0.649  -0.642

 Beta MOs
 -- Occupied --
-26.403 -26.400 -26.372 -26.322 -11.608  -1.831  -1.727  -1.687
 -1.608  -1.012  -0.911  -0.900  -0.882  -0.767  -0.760  -0.730
 -0.712  -0.687  -0.666  -0.649  -0.642

          Ground-State Mulliken Net Atomic Charges

     Atom                 Charge (a.u.)    Spin (a.u.)
  --------------------------------------------------------
      1 C                     1.295856       0.000000
      2 F                    -0.264535       0.000000
      3 F                    -0.333734       0.000000
      4 F                    -0.430439       0.000000
      5 F                    -0.267147       0.000000
  --------------------------------------------------------
  Sum of atomic charges =     0.000000

                    Cartesian Multipole Moments
 -----------------------------------------------------------------
    Charge (ESU x 10^10)
                 0.0000
    Dipole Moment (Debye)
         X       0.6154      Y       0.7822      Z      -0.6860
       Tot       1.2088
    Quadrupole Moments (Debye-Ang)
        XX     -25.4407     XY       0.6587     YY     -21.8427
        XZ       0.6829     YZ      -1.4641     ZZ     -24.6943

 Total job time:  2054.95s(wall), 3339.10s(cpu)
        *  Thank you very much for using Q-Chem.  Have a nice day.  *
