 Q-Chem 4.3, Q-Chem, Inc., Pleasanton, CA (2015)
 Q-Chem 4.3.0 for Intel X86 Linux

User input:
--------------------------------------------------------------
$comment
XAS calculation for the 2b valence excited for water using cvs-adc(2)-x + 6-311+G* basis set
job 1 - determination of HF orbitals
$end

$molecule
0 1
6  -0.469624  2.984497  -0.255823
9  0.523544  2.324538  0.016541
9  -1.160525  3.283049  0.792357
9  -1.210545  0.849508  0.545253
9  -1.142182  2.567708  -1.173362
$end

$rem
jobtype      sp
sym_ignore true
exchange     hf
basis        6-31G*
unrestricted true
$end

--------------------------------------------------------------

   12    -435.3332705920      9.09E-06 Convergence criterion met
 Total energy in the final basis set = -435.3332705920
 Total job time:  3.16s(wall), 14.84s(cpu)
        *  Thank you very much for using Q-Chem.  Have a nice day.  *
 Q-Chem 4.3, Q-Chem, Inc., Pleasanton, CA (2015)
 Q-Chem 4.3.0 for Intel X86 Linux

User input:
--------------------------------------------------------------

$comment
job3 - cvs-adc(2) calculation
$end

$molecule
read
$end

$rem
mem_total 3000
mem_static 1500
sym_ignore true
scf_guess read
method cvs-adc(2)
basis 6-31G*
ee_singlets 20
cc_rest_occ 5                  !only excitations from the lowest N orbitals
unrestricted  true
max_scf_cycles 200
$end
--------------------------------------------------------------

             Standard Nuclear Orientation (Angstroms)
    I     Atom           X                Y                Z
 ----------------------------------------------------------------
    1      C      -0.4696240000     2.9844970000    -0.2558230000
    2      F       0.5235440000     2.3245380000     0.0165410000
    3      F      -1.1605250000     3.2830490000     0.7923570000
    4      F      -1.2105450000     0.8495080000     0.5452530000
    5      F      -1.1421820000     2.5677080000    -1.1733620000
 ----------------------------------------------------------------

   11    -435.3332710994      4.94E-09 Convergence criterion met
 Total energy in the final basis set = -435.3332710994
  Term symbol:  2 (-) A                                     R^2 =  2.49501e-07
  Excitation energy:                                             292.847475 eV
  Term symbol:  3 (-) A                                     R^2 =  2.88943e-08
  Excitation energy:                                             294.583245 eV
  Term symbol:  4 (-) A                                     R^2 =  4.07499e-09
  Excitation energy:                                             302.799062 eV
  Term symbol:  5 (-) A                                     R^2 =  1.09357e-08
  Excitation energy:                                             304.602378 eV
  Term symbol:  6 (-) A                                     R^2 =  1.17474e-07
  Excitation energy:                                             304.858316 eV
  Term symbol:  7 (-) A                                     R^2 =  4.36816e-07
  Excitation energy:                                             305.186787 eV
  Term symbol:  8 (-) A                                     R^2 =  1.20003e-08
  Excitation energy:                                             306.531158 eV
  Term symbol:  9 (-) A                                     R^2 =  2.01598e-08
  Excitation energy:                                             307.175173 eV
  Term symbol:  10 (-) A                                    R^2 =  7.95428e-08
  Excitation energy:                                             311.858714 eV
  Excited state 10 (A)                                             [converged]
  Term symbol:  11 (-) A                                    R^2 =  1.10921e-07
  Excitation energy:                                             313.375166 eV
  Excited state 11 (A)                                             [converged]
  Term symbol:  12 (-) A                                    R^2 =  5.63138e-08
  Excitation energy:                                             313.436552 eV
  Excited state 12 (A)                                             [converged]
  Term symbol:  13 (-) A                                    R^2 =  2.21466e-08
  Excitation energy:                                             313.542193 eV
  Excited state 13 (A)                                             [converged]
  Term symbol:  14 (-) A                                    R^2 =  1.00822e-07
  Excitation energy:                                             313.918704 eV
  Excited state 14 (A)                                             [converged]
  Term symbol:  15 (-) A                                    R^2 =  4.42014e-10
  Excitation energy:                                             314.184098 eV
  Excited state 15 (A)                                             [converged]
  Term symbol:  16 (-) A                                    R^2 =  2.55290e-07
  Excitation energy:                                             319.171629 eV
  Excited state 16 (A)                                             [converged]
  Term symbol:  17 (-) A                                    R^2 =  2.46927e-07
  Excitation energy:                                             319.658836 eV
  Excited state 17 (A)                                         [not converged]
  Term symbol:  18 (-) A                                    R^2 =  3.10962e-02
  Excitation energy:                                             323.352263 eV
  Excited state 18 (A)                                         [not converged]
  Term symbol:  19 (-) A                                    R^2 =  1.18739e-01
  Excitation energy:                                             323.467958 eV
  Excited state 19 (A)                                         [not converged]
  Term symbol:  20 (-) A                                    R^2 =  2.02912e-03
  Excitation energy:                                             323.578256 eV
  Excited state 20 (A)                                         [not converged]
  Term symbol:  21 (-) A                                    R^2 =  3.07700e-02
  Excitation energy:                                             323.582995 eV

                    Orbital Energies (a.u.)
 --------------------------------------------------------------

 Alpha MOs
 -- Occupied --
-26.529 -26.521 -26.494 -25.975 -11.725  -1.936  -1.837  -1.789
 -1.240  -1.101  -1.008  -0.999  -0.946  -0.843  -0.833  -0.811
 -0.790  -0.785  -0.345  -0.345  -0.336

 Beta MOs
 -- Occupied --
-26.529 -26.521 -26.494 -25.975 -11.725  -1.936  -1.837  -1.789
 -1.240  -1.101  -1.008  -0.999  -0.946  -0.843  -0.833  -0.811
 -0.790  -0.785  -0.345  -0.345  -0.336

          Ground-State Mulliken Net Atomic Charges

     Atom                 Charge (a.u.)    Spin (a.u.)
  --------------------------------------------------------
      1 C                     1.184220       0.000000
      2 F                    -0.078014       0.000000
      3 F                    -0.166593       0.000000
      4 F                    -0.862388       0.000000
      5 F                    -0.077224       0.000000
  --------------------------------------------------------
  Sum of atomic charges =     0.000000

                    Cartesian Multipole Moments
 -----------------------------------------------------------------
    Charge (ESU x 10^10)
                 0.0000
    Dipole Moment (Debye)
         X       3.1799      Y       8.5813      Z      -3.5306
       Tot       9.8090
    Quadrupole Moments (Debye-Ang)
        XX     -27.8888     XY      -0.6097     YY      10.7470
        XZ       3.3052     YZ      -6.2060     ZZ     -23.5843

 Total job time:  2129.34s(wall), 3520.36s(cpu)
        *  Thank you very much for using Q-Chem.  Have a nice day.  *
