 Q-Chem 4.3, Q-Chem, Inc., Pleasanton, CA (2015)
 Q-Chem 4.3.0 for Intel X86 Linux

User input:
--------------------------------------------------------------
$comment
XAS calculation for the 2b valence excited for water using cvs-adc(2)-x + 6-311+G* basis set
job 1 - determination of HF orbitals
$end

$molecule
0 1
6  -0.515896  2.652749  -0.138928
9  0.597755  2.345341  -0.006161
9  -1.143773  3.223279  0.794089
9  -1.219187  1.088565  0.500666
9  -1.130752  2.535994  -1.202322
$end

$rem
jobtype      sp
sym_ignore true
exchange     hf
basis        6-31G*
unrestricted true
$end

--------------------------------------------------------------

    8    -435.4862165913      8.22E-06 Convergence criterion met
 Total energy in the final basis set = -435.4862165913
 Total job time:  2.34s(wall), 10.04s(cpu)
        *  Thank you very much for using Q-Chem.  Have a nice day.  *
 Q-Chem 4.3, Q-Chem, Inc., Pleasanton, CA (2015)
 Q-Chem 4.3.0 for Intel X86 Linux

User input:
--------------------------------------------------------------

$comment
job3 - cvs-adc(2) calculation
$end

$molecule
read
$end

$rem
mem_total 3000
mem_static 1500
sym_ignore true
scf_guess read
method cvs-adc(2)
basis 6-31G*
ee_singlets 20
cc_rest_occ 5                  !only excitations from the lowest N orbitals
unrestricted  true
max_scf_cycles 200
$end
--------------------------------------------------------------

             Standard Nuclear Orientation (Angstroms)
    I     Atom           X                Y                Z
 ----------------------------------------------------------------
    1      C      -0.5158960000     2.6527490000    -0.1389280000
    2      F       0.5977550000     2.3453410000    -0.0061610000
    3      F      -1.1437730000     3.2232790000     0.7940890000
    4      F      -1.2191870000     1.0885650000     0.5006660000
    5      F      -1.1307520000     2.5359940000    -1.2023220000
 ----------------------------------------------------------------

    6    -435.4862167538      9.95E-09 Convergence criterion met
 Total energy in the final basis set = -435.4862167538
  Term symbol:  2 (-) A                                     R^2 =  2.25774e-13
  Excitation energy:                                             295.691029 eV
  Term symbol:  3 (-) A                                     R^2 =  1.20665e-13
  Excitation energy:                                             297.591744 eV
  Term symbol:  4 (-) A                                     R^2 =  2.08382e-13
  Excitation energy:                                             303.505667 eV
  Term symbol:  5 (-) A                                     R^2 =  2.73982e-13
  Excitation energy:                                             304.370068 eV
  Term symbol:  6 (-) A                                     R^2 =  1.80139e-13
  Excitation energy:                                             305.562209 eV
  Term symbol:  7 (-) A                                     R^2 =  1.17431e-13
  Excitation energy:                                             306.531086 eV
  Term symbol:  8 (-) A                                     R^2 =  1.43973e-13
  Excitation energy:                                             306.928805 eV
  Term symbol:  9 (-) A                                     R^2 =  2.12573e-13
  Excitation energy:                                             308.944908 eV
  Term symbol:  10 (-) A                                    R^2 =  1.60771e-13
  Excitation energy:                                             311.849329 eV
  Excited state 10 (A)                                             [converged]
  Term symbol:  11 (-) A                                    R^2 =  1.84457e-13
  Excitation energy:                                             313.413426 eV
  Excited state 11 (A)                                             [converged]
  Term symbol:  12 (-) A                                    R^2 =  2.54926e-13
  Excitation energy:                                             314.148039 eV
  Excited state 12 (A)                                             [converged]
  Term symbol:  13 (-) A                                    R^2 =  2.31005e-13
  Excitation energy:                                             314.504440 eV
  Excited state 13 (A)                                             [converged]
  Term symbol:  14 (-) A                                    R^2 =  1.21982e-13
  Excitation energy:                                             314.543629 eV
  Excited state 14 (A)                                             [converged]
  Term symbol:  15 (-) A                                    R^2 =  6.63070e-13
  Excitation energy:                                             315.050064 eV
  Excited state 15 (A)                                             [converged]
  Term symbol:  16 (-) A                                    R^2 =  2.64662e-10
  Excitation energy:                                             318.428164 eV
  Excited state 16 (A)                                             [converged]
  Term symbol:  17 (-) A                                    R^2 =  1.38569e-10
  Excitation energy:                                             318.877756 eV
  Excited state 17 (A)                                             [converged]
  Term symbol:  18 (-) A                                    R^2 =  4.17379e-08
  Excitation energy:                                             330.565578 eV
  Excited state 18 (A)                                             [converged]
  Term symbol:  19 (-) A                                    R^2 =  3.91674e-08
  Excitation energy:                                             330.745718 eV
  Excited state 19 (A)                                         [not converged]
  Term symbol:  20 (-) A                                    R^2 =  5.07124e-05
  Excitation energy:                                             331.682385 eV
  Excited state 20 (A)                                         [not converged]
  Term symbol:  21 (-) A                                    R^2 =  2.73465e-05
  Excitation energy:                                             331.805220 eV

                    Orbital Energies (a.u.)
 --------------------------------------------------------------

 Alpha MOs
 -- Occupied --
-26.488 -26.450 -26.429 -26.126 -11.662  -1.912  -1.805  -1.753
 -1.390  -1.063  -0.978  -0.967  -0.921  -0.805  -0.799  -0.794
 -0.765  -0.740  -0.481  -0.479  -0.471

 Beta MOs
 -- Occupied --
-26.488 -26.450 -26.429 -26.126 -11.662  -1.912  -1.805  -1.753
 -1.390  -1.063  -0.978  -0.967  -0.921  -0.805  -0.799  -0.794
 -0.765  -0.740  -0.481  -0.479  -0.471

          Ground-State Mulliken Net Atomic Charges

     Atom                 Charge (a.u.)    Spin (a.u.)
  --------------------------------------------------------
      1 C                     1.193605       0.000000
      2 F                    -0.100357       0.000000
      3 F                    -0.222913       0.000000
      4 F                    -0.675865       0.000000
      5 F                    -0.194470       0.000000
  --------------------------------------------------------
  Sum of atomic charges =     0.000000

                    Cartesian Multipole Moments
 -----------------------------------------------------------------
    Charge (ESU x 10^10)
                 0.0000
    Dipole Moment (Debye)
         X       2.5077      Y       4.4021      Z      -1.9496
       Tot       5.4284
    Quadrupole Moments (Debye-Ang)
        XX     -27.1573     XY       1.5254     YY      -6.5448
        XZ       1.9175     YZ      -3.3052     ZZ     -24.2522

 Total job time:  2029.86s(wall), 3318.48s(cpu)
        *  Thank you very much for using Q-Chem.  Have a nice day.  *
