 Q-Chem 4.3, Q-Chem, Inc., Pleasanton, CA (2015)
 Q-Chem 4.3.0 for Intel X86 Linux

User input:
--------------------------------------------------------------
$comment
XAS calculation for the 2b valence excited for water using cvs-adc(2)-x + 6-311+G* basis set
job 1 - determination of HF orbitals
$end

$molecule
0 1
6  -0.608411  2.75223  -0.155349
9  0.635766  2.502144  -0.049482
9  -1.090872  3.528248  0.715426
9  -1.351446  0.347223  0.726759
9  -1.088225  2.785809  -1.282523
$end

$rem
jobtype      sp
sym_ignore true
exchange     hf
basis        6-31G*
unrestricted true
$end

--------------------------------------------------------------

   10    -435.3943586610      7.22E-06 Convergence criterion met
 Total energy in the final basis set = -435.3943586610
 Total job time:  2.75s(wall), 12.07s(cpu)
        *  Thank you very much for using Q-Chem.  Have a nice day.  *
 Q-Chem 4.3, Q-Chem, Inc., Pleasanton, CA (2015)
 Q-Chem 4.3.0 for Intel X86 Linux

User input:
--------------------------------------------------------------

$comment
job3 - cvs-adc(2) calculation
$end

$molecule
read
$end

$rem
mem_total 3000
mem_static 1500
sym_ignore true
scf_guess read
method cvs-adc(2)
basis 6-31G*
ee_singlets 20
cc_rest_occ 5                  !only excitations from the lowest N orbitals
unrestricted  true
max_scf_cycles 200
$end
--------------------------------------------------------------

             Standard Nuclear Orientation (Angstroms)
    I     Atom           X                Y                Z
 ----------------------------------------------------------------
    1      C      -0.6084110000     2.7522300000    -0.1553490000
    2      F       0.6357660000     2.5021440000    -0.0494820000
    3      F      -1.0908720000     3.5282480000     0.7154260000
    4      F      -1.3514460000     0.3472230000     0.7267590000
    5      F      -1.0882250000     2.7858090000    -1.2825230000
 ----------------------------------------------------------------

    7    -435.3943591628      8.67E-09 Convergence criterion met
 Total energy in the final basis set = -435.3943591628
  Term symbol:  2 (-) A                                     R^2 =  2.30412e-13
  Excitation energy:                                             294.529695 eV
  Term symbol:  3 (-) A                                     R^2 =  2.07460e-13
  Excitation energy:                                             296.467974 eV
  Term symbol:  4 (-) A                                     R^2 =  6.81848e-14
  Excitation energy:                                             302.781416 eV
  Term symbol:  5 (-) A                                     R^2 =  1.84911e-13
  Excitation energy:                                             303.658356 eV
  Term symbol:  6 (-) A                                     R^2 =  5.27565e-14
  Excitation energy:                                             304.674411 eV
  Term symbol:  7 (-) A                                     R^2 =  4.36277e-14
  Excitation energy:                                             304.674482 eV
  Term symbol:  8 (-) A                                     R^2 =  5.20985e-14
  Excitation energy:                                             305.775093 eV
  Term symbol:  9 (-) A                                     R^2 =  7.57232e-14
  Excitation energy:                                             306.736858 eV
  Term symbol:  10 (-) A                                    R^2 =  8.48314e-14
  Excitation energy:                                             313.070115 eV
  Excited state 10 (A)                                             [converged]
  Term symbol:  11 (-) A                                    R^2 =  9.55385e-14
  Excitation energy:                                             314.112127 eV
  Excited state 11 (A)                                             [converged]
  Term symbol:  12 (-) A                                    R^2 =  1.61237e-13
  Excitation energy:                                             314.462353 eV
  Excited state 12 (A)                                             [converged]
  Term symbol:  13 (-) A                                    R^2 =  1.89077e-13
  Excitation energy:                                             314.617062 eV
  Excited state 13 (A)                                             [converged]
  Term symbol:  14 (-) A                                    R^2 =  4.50083e-13
  Excitation energy:                                             314.910362 eV
  Excited state 14 (A)                                             [converged]
  Term symbol:  15 (-) A                                    R^2 =  3.63539e-13
  Excitation energy:                                             315.090014 eV
  Excited state 15 (A)                                             [converged]
  Term symbol:  16 (-) A                                    R^2 =  4.01708e-13
  Excitation energy:                                             315.948860 eV
  Excited state 16 (A)                                             [converged]
  Term symbol:  17 (-) A                                    R^2 =  8.83140e-13
  Excitation energy:                                             316.967844 eV
  Excited state 17 (A)                                             [converged]
  Term symbol:  18 (-) A                                    R^2 =  2.04602e-09
  Excitation energy:                                             329.045260 eV
  Excited state 18 (A)                                             [converged]
  Term symbol:  19 (-) A                                    R^2 =  2.84097e-10
  Excitation energy:                                             329.090179 eV
  Excited state 19 (A)                                         [not converged]
  Term symbol:  20 (-) A                                    R^2 =  6.47566e-06
  Excitation energy:                                             331.628066 eV
  Excited state 20 (A)                                             [converged]
  Term symbol:  21 (-) A                                    R^2 =  4.83830e-07
  Excitation energy:                                             331.775515 eV

                    Orbital Energies (a.u.)
 --------------------------------------------------------------

 Alpha MOs
 -- Occupied --
-26.532 -26.516 -26.506 -26.073 -11.734  -1.928  -1.834  -1.809
 -1.302  -1.106  -1.009  -1.004  -0.949  -0.850  -0.849  -0.828
 -0.814  -0.799  -0.416  -0.416  -0.369

 Beta MOs
 -- Occupied --
-26.532 -26.516 -26.506 -26.073 -11.734  -1.928  -1.834  -1.809
 -1.302  -1.106  -1.009  -1.004  -0.949  -0.850  -0.849  -0.828
 -0.814  -0.799  -0.416  -0.416  -0.369

          Ground-State Mulliken Net Atomic Charges

     Atom                 Charge (a.u.)    Spin (a.u.)
  --------------------------------------------------------
      1 C                     1.153749       0.000000
      2 F                    -0.179043       0.000000
      3 F                    -0.171277       0.000000
      4 F                    -0.675058       0.000000
      5 F                    -0.128371       0.000000
  --------------------------------------------------------
  Sum of atomic charges =     0.000000

                    Cartesian Multipole Moments
 -----------------------------------------------------------------
    Charge (ESU x 10^10)
                 0.0000
    Dipole Moment (Debye)
         X       2.2235      Y       7.6604      Z      -2.9739
       Tot       8.5129
    Quadrupole Moments (Debye-Ang)
        XX     -27.7314     XY      -3.9370     YY       1.1761
        XZ       3.5124     YZ      -2.9161     ZZ     -24.6370

 Total job time:  2012.53s(wall), 3314.72s(cpu)
        *  Thank you very much for using Q-Chem.  Have a nice day.  *
