 Q-Chem 4.3, Q-Chem, Inc., Pleasanton, CA (2015)
 Q-Chem 4.3.0 for Intel X86 Linux

User input:
--------------------------------------------------------------
$comment
XAS calculation for the 2b valence excited for water using cvs-adc(2)-x + 6-311+G* basis set
job 1 - determination of HF orbitals
$end

$molecule
0 1
6  -0.60804  2.80395  -0.10157
9  0.591373  2.307135  0.019805
9  -1.14875  3.269607  0.785417
9  -1.185409  1.020831  0.494205
9  -1.160332  2.544883  -1.215083
$end

$rem
jobtype      sp
sym_ignore true
exchange     hf
basis        6-31G*
unrestricted true
$end

--------------------------------------------------------------

    8    -435.4341375535      9.50E-06 Convergence criterion met
 Total energy in the final basis set = -435.4341375535
 Total job time:  2.34s(wall), 9.91s(cpu)
        *  Thank you very much for using Q-Chem.  Have a nice day.  *
 Q-Chem 4.3, Q-Chem, Inc., Pleasanton, CA (2015)
 Q-Chem 4.3.0 for Intel X86 Linux

User input:
--------------------------------------------------------------

$comment
job3 - cvs-adc(2) calculation
$end

$molecule
read
$end

$rem
mem_total 3000
mem_static 1500
sym_ignore true
scf_guess read
method cvs-adc(2)
basis 6-31G*
ee_singlets 20
cc_rest_occ 5                  !only excitations from the lowest N orbitals
unrestricted  true
max_scf_cycles 200
$end
--------------------------------------------------------------

             Standard Nuclear Orientation (Angstroms)
    I     Atom           X                Y                Z
 ----------------------------------------------------------------
    1      C      -0.6080400000     2.8039500000    -0.1015700000
    2      F       0.5913730000     2.3071350000     0.0198050000
    3      F      -1.1487500000     3.2696070000     0.7854170000
    4      F      -1.1854090000     1.0208310000     0.4942050000
    5      F      -1.1603320000     2.5448830000    -1.2150830000
 ----------------------------------------------------------------

    7    -435.4341377164      5.39E-09 Convergence criterion met
 Total energy in the final basis set = -435.4341377164
  Term symbol:  2 (-) A                                     R^2 =  8.15053e-14
  Excitation energy:                                             294.812264 eV
  Term symbol:  3 (-) A                                     R^2 =  5.87317e-14
  Excitation energy:                                             296.655900 eV
  Term symbol:  4 (-) A                                     R^2 =  1.78998e-13
  Excitation energy:                                             302.617825 eV
  Term symbol:  5 (-) A                                     R^2 =  8.80954e-14
  Excitation energy:                                             303.486184 eV
  Term symbol:  6 (-) A                                     R^2 =  1.01690e-13
  Excitation energy:                                             304.856847 eV
  Term symbol:  7 (-) A                                     R^2 =  5.09812e-14
  Excitation energy:                                             305.614635 eV
  Term symbol:  8 (-) A                                     R^2 =  2.75064e-13
  Excitation energy:                                             307.530106 eV
  Term symbol:  9 (-) A                                     R^2 =  2.44151e-13
  Excitation energy:                                             309.200383 eV
  Term symbol:  10 (-) A                                    R^2 =  1.74361e-13
  Excitation energy:                                             312.178454 eV
  Excited state 10 (A)                                             [converged]
  Term symbol:  11 (-) A                                    R^2 =  6.53811e-14
  Excitation energy:                                             313.700027 eV
  Excited state 11 (A)                                             [converged]
  Term symbol:  12 (-) A                                    R^2 =  1.56547e-13
  Excitation energy:                                             314.268771 eV
  Excited state 12 (A)                                             [converged]
  Term symbol:  13 (-) A                                    R^2 =  2.53476e-13
  Excitation energy:                                             314.615656 eV
  Excited state 13 (A)                                             [converged]
  Term symbol:  14 (-) A                                    R^2 =  3.62810e-13
  Excitation energy:                                             314.754555 eV
  Excited state 14 (A)                                             [converged]
  Term symbol:  15 (-) A                                    R^2 =  3.10665e-13
  Excitation energy:                                             315.479576 eV
  Excited state 15 (A)                                             [converged]
  Term symbol:  16 (-) A                                    R^2 =  5.93114e-12
  Excitation energy:                                             319.725460 eV
  Excited state 16 (A)                                             [converged]
  Term symbol:  17 (-) A                                    R^2 =  9.00938e-12
  Excitation energy:                                             320.227579 eV
  Excited state 17 (A)                                             [converged]
  Term symbol:  18 (-) A                                    R^2 =  8.27238e-09
  Excitation energy:                                             330.403481 eV
  Excited state 18 (A)                                             [converged]
  Term symbol:  19 (-) A                                    R^2 =  3.31240e-10
  Excitation energy:                                             330.615653 eV
  Excited state 19 (A)                                         [not converged]
  Term symbol:  20 (-) A                                    R^2 =  4.35296e-06
  Excitation energy:                                             332.058889 eV
  Excited state 20 (A)                                             [converged]
  Term symbol:  21 (-) A                                    R^2 =  6.44659e-07
  Excitation energy:                                             332.173079 eV

                    Orbital Energies (a.u.)
 --------------------------------------------------------------

 Alpha MOs
 -- Occupied --
-26.523 -26.461 -26.441 -26.074 -11.690  -1.944  -1.801  -1.743
 -1.338  -1.084  -0.986  -0.977  -0.937  -0.811  -0.802  -0.800
 -0.764  -0.747  -0.435  -0.434  -0.425

 Beta MOs
 -- Occupied --
-26.523 -26.461 -26.441 -26.074 -11.690  -1.944  -1.801  -1.743
 -1.338  -1.084  -0.986  -0.977  -0.937  -0.811  -0.802  -0.800
 -0.764  -0.747  -0.435  -0.434  -0.425

          Ground-State Mulliken Net Atomic Charges

     Atom                 Charge (a.u.)    Spin (a.u.)
  --------------------------------------------------------
      1 C                     1.206758       0.000000
      2 F                    -0.234857       0.000000
      3 F                    -0.031029       0.000000
      4 F                    -0.737070       0.000000
      5 F                    -0.203802       0.000000
  --------------------------------------------------------
  Sum of atomic charges =     0.000000

                    Cartesian Multipole Moments
 -----------------------------------------------------------------
    Charge (ESU x 10^10)
                 0.0000
    Dipole Moment (Debye)
         X       1.4984      Y       6.4071      Z      -1.5393
       Tot       6.7577
    Quadrupole Moments (Debye-Ang)
        XX     -26.4695     XY      -2.8490     YY       2.9576
        XZ       1.5671     YZ      -1.5405     ZZ     -23.9729

 Total job time:  1957.41s(wall), 3223.68s(cpu)
        *  Thank you very much for using Q-Chem.  Have a nice day.  *
