 Q-Chem 4.3, Q-Chem, Inc., Pleasanton, CA (2015)
 Q-Chem 4.3.0 for Intel X86 Linux

User input:
--------------------------------------------------------------
$comment
XAS calculation for the 2b valence excited for water using cvs-adc(2)-x + 6-311+G* basis set
job 1 - determination of HF orbitals
$end

$molecule
0 1
6  -0.431938  2.922847  -0.257182
9  0.677113  2.481823  -0.080964
9  -1.104449  3.182424  0.760764
9  -1.47384  0.739298  0.724166
9  -1.050946  2.622098  -1.243222
$end

$rem
jobtype      sp
sym_ignore true
exchange     hf
basis        6-31G*
unrestricted true
$end

--------------------------------------------------------------

   12    -435.3625952818      2.96E-06 Convergence criterion met
 Total energy in the final basis set = -435.3625952818
 Total job time:  3.23s(wall), 14.74s(cpu)
        *  Thank you very much for using Q-Chem.  Have a nice day.  *
 Q-Chem 4.3, Q-Chem, Inc., Pleasanton, CA (2015)
 Q-Chem 4.3.0 for Intel X86 Linux

User input:
--------------------------------------------------------------

$comment
job3 - cvs-adc(2) calculation
$end

$molecule
read
$end

$rem
mem_total 3000
mem_static 1500
sym_ignore true
scf_guess read
method cvs-adc(2)
basis 6-31G*
ee_singlets 20
cc_rest_occ 5                  !only excitations from the lowest N orbitals
unrestricted  true
max_scf_cycles 200
$end
--------------------------------------------------------------

             Standard Nuclear Orientation (Angstroms)
    I     Atom           X                Y                Z
 ----------------------------------------------------------------
    1      C      -0.4319380000     2.9228470000    -0.2571820000
    2      F       0.6771130000     2.4818230000    -0.0809640000
    3      F      -1.1044490000     3.1824240000     0.7607640000
    4      F      -1.4738400000     0.7392980000     0.7241660000
    5      F      -1.0509460000     2.6220980000    -1.2432220000
 ----------------------------------------------------------------

    7    -435.3625953444      5.04E-09 Convergence criterion met
 Total energy in the final basis set = -435.3625953444
  Term symbol:  2 (-) A                                     R^2 =  1.27039e-13
  Excitation energy:                                             293.777150 eV
  Term symbol:  3 (-) A                                     R^2 =  1.64262e-13
  Excitation energy:                                             295.616659 eV
  Term symbol:  4 (-) A                                     R^2 =  7.05445e-13
  Excitation energy:                                             304.143771 eV
  Term symbol:  5 (-) A                                     R^2 =  6.80921e-13
  Excitation energy:                                             304.890157 eV
  Term symbol:  6 (-) A                                     R^2 =  1.68119e-12
  Excitation energy:                                             305.930048 eV
  Term symbol:  7 (-) A                                     R^2 =  1.95818e-13
  Excitation energy:                                             306.025624 eV
  Term symbol:  8 (-) A                                     R^2 =  3.19650e-13
  Excitation energy:                                             306.898292 eV
  Term symbol:  9 (-) A                                     R^2 =  3.52516e-13
  Excitation energy:                                             308.034912 eV
  Term symbol:  10 (-) A                                    R^2 =  2.92859e-13
  Excitation energy:                                             312.399174 eV
  Excited state 10 (A)                                             [converged]
  Term symbol:  11 (-) A                                    R^2 =  5.36789e-13
  Excitation energy:                                             313.980980 eV
  Excited state 11 (A)                                             [converged]
  Term symbol:  12 (-) A                                    R^2 =  8.69076e-13
  Excitation energy:                                             314.216224 eV
  Excited state 12 (A)                                             [converged]
  Term symbol:  13 (-) A                                    R^2 =  4.98152e-13
  Excitation energy:                                             314.505565 eV
  Excited state 13 (A)                                             [converged]
  Term symbol:  14 (-) A                                    R^2 =  4.17790e-13
  Excitation energy:                                             314.670517 eV
  Excited state 14 (A)                                             [converged]
  Term symbol:  15 (-) A                                    R^2 =  5.17873e-13
  Excitation energy:                                             314.988777 eV
  Excited state 15 (A)                                             [converged]
  Term symbol:  16 (-) A                                    R^2 =  4.10205e-11
  Excitation energy:                                             318.125207 eV
  Excited state 16 (A)                                             [converged]
  Term symbol:  17 (-) A                                    R^2 =  7.06801e-11
  Excitation energy:                                             318.838559 eV
  Excited state 17 (A)                                             [converged]
  Term symbol:  18 (-) A                                    R^2 =  1.18692e-08
  Excitation energy:                                             331.956593 eV
  Excited state 18 (A)                                             [converged]
  Term symbol:  19 (-) A                                    R^2 =  6.94493e-08
  Excitation energy:                                             332.137833 eV
  Excited state 19 (A)                                             [converged]
  Term symbol:  20 (-) A                                    R^2 =  1.54549e-07
  Excitation energy:                                             332.186138 eV
  Excited state 20 (A)                                             [converged]
  Term symbol:  21 (-) A                                    R^2 =  7.27735e-07
  Excitation energy:                                             332.301637 eV

                    Orbital Energies (a.u.)
 --------------------------------------------------------------

 Alpha MOs
 -- Occupied --
-26.554 -26.551 -26.517 -25.950 -11.748  -1.973  -1.878  -1.833
 -1.210  -1.127  -1.047  -1.034  -0.984  -0.873  -0.867  -0.852
 -0.820  -0.812  -0.319  -0.318  -0.316

 Beta MOs
 -- Occupied --
-26.554 -26.551 -26.517 -25.950 -11.748  -1.973  -1.878  -1.833
 -1.210  -1.127  -1.047  -1.034  -0.984  -0.873  -0.867  -0.852
 -0.820  -0.812  -0.319  -0.318  -0.316

          Ground-State Mulliken Net Atomic Charges

     Atom                 Charge (a.u.)    Spin (a.u.)
  --------------------------------------------------------
      1 C                     1.150362       0.000000
      2 F                    -0.085839       0.000000
      3 F                    -0.103169       0.000000
      4 F                    -0.888010       0.000000
      5 F                    -0.073344       0.000000
  --------------------------------------------------------
  Sum of atomic charges =     0.000000

                    Cartesian Multipole Moments
 -----------------------------------------------------------------
    Charge (ESU x 10^10)
                 0.0000
    Dipole Moment (Debye)
         X       4.4566      Y       9.3058      Z      -4.2807
       Tot      11.1706
    Quadrupole Moments (Debye-Ang)
        XX     -30.8815     XY      -0.2943     YY      12.2990
        XZ       4.9558     YZ      -6.1699     ZZ     -24.3615

 Total job time:  1938.52s(wall), 3127.24s(cpu)
        *  Thank you very much for using Q-Chem.  Have a nice day.  *
