 Q-Chem 4.3, Q-Chem, Inc., Pleasanton, CA (2015)
 Q-Chem 4.3.0 for Intel X86 Linux

User input:
--------------------------------------------------------------
$comment
XAS calculation for the 2b valence excited for water using cvs-adc(2)-x + 6-311+G* basis set
job 1 - determination of HF orbitals
$end

$molecule
0 1
6  -0.712102  2.348589  0.03312
9  0.602752  2.342627  0.00102
9  -1.127722  3.295073  0.774348
9  -1.118287  1.200952  0.414907
9  -1.139564  2.56152  -1.225322
$end

$rem
jobtype      sp
sym_ignore true
exchange     hf
basis        6-31G*
unrestricted true
$end

--------------------------------------------------------------

    8    -435.6417415640      3.39E-06 Convergence criterion met
 Total energy in the final basis set = -435.6417415640
 Total job time:  2.33s(wall), 8.91s(cpu)
        *  Thank you very much for using Q-Chem.  Have a nice day.  *
 Q-Chem 4.3, Q-Chem, Inc., Pleasanton, CA (2015)
 Q-Chem 4.3.0 for Intel X86 Linux

User input:
--------------------------------------------------------------

$comment
job3 - cvs-adc(2) calculation
$end

$molecule
read
$end

$rem
mem_total 3000
mem_static 1500
sym_ignore true
scf_guess read
method cvs-adc(2)
basis 6-31G*
ee_singlets 20
cc_rest_occ 5                  !only excitations from the lowest N orbitals
unrestricted  true
max_scf_cycles 200
$end
--------------------------------------------------------------

             Standard Nuclear Orientation (Angstroms)
    I     Atom           X                Y                Z
 ----------------------------------------------------------------
    1      C      -0.7121020000     2.3485890000     0.0331200000
    2      F       0.6027520000     2.3426270000     0.0010200000
    3      F      -1.1277220000     3.2950730000     0.7743480000
    4      F      -1.1182870000     1.2009520000     0.4149070000
    5      F      -1.1395640000     2.5615200000    -1.2253220000
 ----------------------------------------------------------------

    5    -435.6417415464      2.99E-09 Convergence criterion met
 Total energy in the final basis set = -435.6417415464
  Term symbol:  2 (-) A                                     R^2 =  2.39108e-14
  Excitation energy:                                             300.735466 eV
  Term symbol:  3 (-) A                                     R^2 =  2.41644e-14
  Excitation energy:                                             301.540970 eV
  Term symbol:  4 (-) A                                     R^2 =  2.42204e-14
  Excitation energy:                                             302.548122 eV
  Term symbol:  5 (-) A                                     R^2 =  2.89677e-14
  Excitation energy:                                             302.886526 eV
  Term symbol:  6 (-) A                                     R^2 =  2.76048e-14
  Excitation energy:                                             303.702283 eV
  Term symbol:  7 (-) A                                     R^2 =  5.57397e-14
  Excitation energy:                                             304.036501 eV
  Term symbol:  8 (-) A                                     R^2 =  6.05383e-14
  Excitation energy:                                             304.714915 eV
  Term symbol:  9 (-) A                                     R^2 =  4.54356e-14
  Excitation energy:                                             306.602682 eV
  Term symbol:  10 (-) A                                    R^2 =  7.98139e-14
  Excitation energy:                                             313.042174 eV
  Excited state 10 (A)                                             [converged]
  Term symbol:  11 (-) A                                    R^2 =  8.90910e-14
  Excitation energy:                                             313.532294 eV
  Excited state 11 (A)                                             [converged]
  Term symbol:  12 (-) A                                    R^2 =  1.49026e-13
  Excitation energy:                                             313.727778 eV
  Excited state 12 (A)                                             [converged]
  Term symbol:  13 (-) A                                    R^2 =  2.55012e-13
  Excitation energy:                                             313.758174 eV
  Excited state 13 (A)                                             [converged]
  Term symbol:  14 (-) A                                    R^2 =  4.24379e-13
  Excitation energy:                                             313.926557 eV
  Excited state 14 (A)                                             [converged]
  Term symbol:  15 (-) A                                    R^2 =  5.67866e-13
  Excitation energy:                                             313.942998 eV
  Excited state 15 (A)                                             [converged]
  Term symbol:  16 (-) A                                    R^2 =  1.51175e-13
  Excitation energy:                                             314.127218 eV
  Excited state 16 (A)                                             [converged]
  Term symbol:  17 (-) A                                    R^2 =  5.84714e-13
  Excitation energy:                                             314.411642 eV
  Excited state 17 (A)                                             [converged]
  Term symbol:  18 (-) A                                    R^2 =  6.02655e-07
  Excitation energy:                                             330.179037 eV
  Excited state 18 (A)                                             [converged]
  Term symbol:  19 (-) A                                    R^2 =  3.00276e-08
  Excitation energy:                                             330.201668 eV
  Excited state 19 (A)                                             [converged]
  Term symbol:  20 (-) A                                    R^2 =  2.41949e-07
  Excitation energy:                                             330.209611 eV
  Excited state 20 (A)                                             [converged]
  Term symbol:  21 (-) A                                    R^2 =  1.07193e-07
  Excitation energy:                                             330.233848 eV

                    Orbital Energies (a.u.)
 --------------------------------------------------------------

 Alpha MOs
 -- Occupied --
-26.389 -26.385 -26.367 -26.356 -11.605  -1.818  -1.703  -1.677
 -1.653  -1.007  -0.898  -0.890  -0.886  -0.762  -0.757  -0.716
 -0.704  -0.693  -0.678  -0.669  -0.664

 Beta MOs
 -- Occupied --
-26.389 -26.385 -26.367 -26.356 -11.605  -1.818  -1.703  -1.677
 -1.653  -1.007  -0.898  -0.890  -0.886  -0.762  -0.757  -0.716
 -0.704  -0.693  -0.678  -0.669  -0.664

          Ground-State Mulliken Net Atomic Charges

     Atom                 Charge (a.u.)    Spin (a.u.)
  --------------------------------------------------------
      1 C                     1.308693       0.000000
      2 F                    -0.342715       0.000000
      3 F                    -0.295365       0.000000
      4 F                    -0.300546       0.000000
      5 F                    -0.370067       0.000000
  --------------------------------------------------------
  Sum of atomic charges =     0.000000

                    Cartesian Multipole Moments
 -----------------------------------------------------------------
    Charge (ESU x 10^10)
                 0.0000
    Dipole Moment (Debye)
         X      -0.1606      Y      -0.0326      Z       0.4742
       Tot       0.5017
    Quadrupole Moments (Debye-Ang)
        XX     -24.7911     XY      -0.3223     YY     -24.8659
        XZ      -0.5007     YZ       1.1993     ZZ     -25.0785

 Total job time:  2148.58s(wall), 3427.40s(cpu)
        *  Thank you very much for using Q-Chem.  Have a nice day.  *
