 Q-Chem 4.3, Q-Chem, Inc., Pleasanton, CA (2015)
 Q-Chem 4.3.0 for Intel X86 Linux

User input:
--------------------------------------------------------------
$comment
XAS calculation for the 2b valence excited for water using cvs-adc(2)-x + 6-311+G* basis set
job 1 - determination of HF orbitals
$end

$molecule
0 1
6  -0.493377  2.742033  -0.162343
9  0.615583  2.34829  -0.011473
9  -1.14442  3.199129  0.794795
9  -1.253511  1.05721  0.528602
9  -1.128191  2.5332  -1.210563
$end

$rem
jobtype      sp
sym_ignore true
exchange     hf
basis        6-31G*
unrestricted true
$end

--------------------------------------------------------------

    8    -435.4446985692      7.42E-06 Convergence criterion met
 Total energy in the final basis set = -435.4446985692
 Total job time:  2.23s(wall), 10.32s(cpu)
        *  Thank you very much for using Q-Chem.  Have a nice day.  *
 Q-Chem 4.3, Q-Chem, Inc., Pleasanton, CA (2015)
 Q-Chem 4.3.0 for Intel X86 Linux

User input:
--------------------------------------------------------------

$comment
job3 - cvs-adc(2) calculation
$end

$molecule
read
$end

$rem
mem_total 3000
mem_static 1500
sym_ignore true
scf_guess read
method cvs-adc(2)
basis 6-31G*
ee_singlets 20
cc_rest_occ 5                  !only excitations from the lowest N orbitals
unrestricted  true
max_scf_cycles 200
$end
--------------------------------------------------------------

             Standard Nuclear Orientation (Angstroms)
    I     Atom           X                Y                Z
 ----------------------------------------------------------------
    1      C      -0.4933770000     2.7420330000    -0.1623430000
    2      F       0.6155830000     2.3482900000    -0.0114730000
    3      F      -1.1444200000     3.1991290000     0.7947950000
    4      F      -1.2535110000     1.0572100000     0.5286020000
    5      F      -1.1281910000     2.5332000000    -1.2105630000
 ----------------------------------------------------------------

    6    -435.4446985389      5.53E-09 Convergence criterion met
 Total energy in the final basis set = -435.4446985389
  Term symbol:  2 (-) A                                     R^2 =  5.85765e-11
  Excitation energy:                                             294.746337 eV
  Term symbol:  3 (-) A                                     R^2 =  8.91489e-11
  Excitation energy:                                             296.598377 eV
  Term symbol:  4 (-) A                                     R^2 =  1.55392e-11
  Excitation energy:                                             303.644062 eV
  Term symbol:  5 (-) A                                     R^2 =  4.14734e-11
  Excitation energy:                                             304.564586 eV
  Term symbol:  6 (-) A                                     R^2 =  1.65056e-10
  Excitation energy:                                             305.656461 eV
  Term symbol:  7 (-) A                                     R^2 =  2.01374e-10
  Excitation energy:                                             306.277174 eV
  Term symbol:  8 (-) A                                     R^2 =  1.95298e-09
  Excitation energy:                                             306.726513 eV
  Term symbol:  9 (-) A                                     R^2 =  2.16348e-10
  Excitation energy:                                             308.372984 eV
  Term symbol:  10 (-) A                                    R^2 =  2.99560e-10
  Excitation energy:                                             311.892395 eV
  Excited state 10 (A)                                             [converged]
  Term symbol:  11 (-) A                                    R^2 =  1.33835e-10
  Excitation energy:                                             313.463475 eV
  Excited state 11 (A)                                             [converged]
  Term symbol:  12 (-) A                                    R^2 =  4.37296e-10
  Excitation energy:                                             314.279617 eV
  Excited state 12 (A)                                             [converged]
  Term symbol:  13 (-) A                                    R^2 =  5.13231e-10
  Excitation energy:                                             314.558685 eV
  Excited state 13 (A)                                             [converged]
  Term symbol:  14 (-) A                                    R^2 =  8.14536e-10
  Excitation energy:                                             314.671120 eV
  Excited state 14 (A)                                             [converged]
  Term symbol:  15 (-) A                                    R^2 =  9.48824e-10
  Excitation energy:                                             315.018549 eV
  Excited state 15 (A)                                             [converged]
  Term symbol:  16 (-) A                                    R^2 =  2.62452e-10
  Excitation energy:                                             319.491245 eV
  Excited state 16 (A)                                             [converged]
  Term symbol:  17 (-) A                                    R^2 =  1.29481e-10
  Excitation energy:                                             319.990803 eV
  Excited state 17 (A)                                             [converged]
  Term symbol:  18 (-) A                                    R^2 =  5.80005e-07
  Excitation energy:                                             331.120237 eV
  Excited state 18 (A)                                         [not converged]
  Term symbol:  19 (-) A                                    R^2 =  1.89326e-06
  Excitation energy:                                             331.285300 eV
  Excited state 19 (A)                                         [not converged]
  Term symbol:  20 (-) A                                    R^2 =  2.66100e-05
  Excitation energy:                                             331.904059 eV
  Excited state 20 (A)                                         [not converged]
  Term symbol:  21 (-) A                                    R^2 =  2.52138e-05
  Excitation energy:                                             332.036860 eV

                    Orbital Energies (a.u.)
 --------------------------------------------------------------

 Alpha MOs
 -- Occupied --
-26.502 -26.469 -26.458 -26.066 -11.688  -1.913  -1.815  -1.778
 -1.332  -1.073  -0.988  -0.980  -0.926  -0.816  -0.813  -0.805
 -0.781  -0.759  -0.429  -0.427  -0.420

 Beta MOs
 -- Occupied --
-26.502 -26.469 -26.458 -26.066 -11.688  -1.913  -1.815  -1.778
 -1.332  -1.073  -0.988  -0.980  -0.926  -0.816  -0.813  -0.805
 -0.781  -0.759  -0.429  -0.427  -0.420

          Ground-State Mulliken Net Atomic Charges

     Atom                 Charge (a.u.)    Spin (a.u.)
  --------------------------------------------------------
      1 C                     1.200503       0.000000
      2 F                    -0.108096       0.000000
      3 F                    -0.168661       0.000000
      4 F                    -0.747086       0.000000
      5 F                    -0.176661       0.000000
  --------------------------------------------------------
  Sum of atomic charges =     0.000000

                    Cartesian Multipole Moments
 -----------------------------------------------------------------
    Charge (ESU x 10^10)
                 0.0000
    Dipole Moment (Debye)
         X       2.8945      Y       5.7365      Z      -2.3492
       Tot       6.8413
    Quadrupole Moments (Debye-Ang)
        XX     -27.7648     XY       1.0629     YY      -0.7217
        XZ       2.3579     YZ      -3.7884     ZZ     -24.1484

 Total job time:  2430.66s(wall), 4019.23s(cpu)
        *  Thank you very much for using Q-Chem.  Have a nice day.  *
