 Q-Chem 4.3, Q-Chem, Inc., Pleasanton, CA (2015)
 Q-Chem 4.3.0 for Intel X86 Linux

User input:
--------------------------------------------------------------
$comment
XAS calculation for the 2b valence excited for water using cvs-adc(2)-x + 6-311+G* basis set
job 1 - determination of HF orbitals
$end

$molecule
0 1
6  -0.438415  3.023092  -0.211731
9  0.581232  2.367106  -0.020042
9  -1.117923  3.275847  0.750647
9  -1.300939  0.756362  0.617211
9  -1.122812  2.571627  -1.219423
$end

$rem
jobtype      sp
sym_ignore true
exchange     hf
basis        6-31G*
unrestricted true
$end

--------------------------------------------------------------

   13    -435.3275232563      6.67E-06 Convergence criterion met
 Total energy in the final basis set = -435.3275232563
 Total job time:  3.52s(wall), 15.30s(cpu)
        *  Thank you very much for using Q-Chem.  Have a nice day.  *
 Q-Chem 4.3, Q-Chem, Inc., Pleasanton, CA (2015)
 Q-Chem 4.3.0 for Intel X86 Linux

User input:
--------------------------------------------------------------

$comment
job3 - cvs-adc(2) calculation
$end

$molecule
read
$end

$rem
mem_total 3000
mem_static 1500
sym_ignore true
scf_guess read
method cvs-adc(2)
basis 6-31G*
ee_singlets 20
cc_rest_occ 5                  !only excitations from the lowest N orbitals
unrestricted  true
max_scf_cycles 200
$end
--------------------------------------------------------------

             Standard Nuclear Orientation (Angstroms)
    I     Atom           X                Y                Z
 ----------------------------------------------------------------
    1      C      -0.4384150000     3.0230920000    -0.2117310000
    2      F       0.5812320000     2.3671060000    -0.0200420000
    3      F      -1.1179230000     3.2758470000     0.7506470000
    4      F      -1.3009390000     0.7563620000     0.6172110000
    5      F      -1.1228120000     2.5716270000    -1.2194230000
 ----------------------------------------------------------------

   10    -435.3275235356      7.39E-09 Convergence criterion met
 Total energy in the final basis set = -435.3275235356
  Term symbol:  2 (-) A                                     R^2 =  4.27503e-11
  Excitation energy:                                             292.935952 eV
  Term symbol:  3 (-) A                                     R^2 =  2.22620e-11
  Excitation energy:                                             294.666348 eV
  Term symbol:  4 (-) A                                     R^2 =  6.98247e-11
  Excitation energy:                                             302.580902 eV
  Term symbol:  5 (-) A                                     R^2 =  1.06448e-10
  Excitation energy:                                             304.558818 eV
  Term symbol:  6 (-) A                                     R^2 =  3.64516e-12
  Excitation energy:                                             304.648110 eV
  Term symbol:  7 (-) A                                     R^2 =  6.61571e-11
  Excitation energy:                                             305.156620 eV
  Term symbol:  8 (-) A                                     R^2 =  1.58920e-11
  Excitation energy:                                             306.552892 eV
  Term symbol:  9 (-) A                                     R^2 =  2.77101e-12
  Excitation energy:                                             307.043368 eV
  Term symbol:  10 (-) A                                    R^2 =  7.88546e-10
  Excitation energy:                                             311.996398 eV
  Excited state 10 (A)                                             [converged]
  Term symbol:  11 (-) A                                    R^2 =  1.86437e-10
  Excitation energy:                                             313.418846 eV
  Excited state 11 (A)                                             [converged]
  Term symbol:  12 (-) A                                    R^2 =  6.11400e-11
  Excitation energy:                                             313.550894 eV
  Excited state 12 (A)                                             [converged]
  Term symbol:  13 (-) A                                    R^2 =  2.97444e-11
  Excitation energy:                                             313.616659 eV
  Excited state 13 (A)                                             [converged]
  Term symbol:  14 (-) A                                    R^2 =  2.41868e-11
  Excitation energy:                                             313.944102 eV
  Excited state 14 (A)                                             [converged]
  Term symbol:  15 (-) A                                    R^2 =  2.34005e-11
  Excitation energy:                                             314.258339 eV
  Excited state 15 (A)                                             [converged]
  Term symbol:  16 (-) A                                    R^2 =  9.53343e-10
  Excitation energy:                                             318.261376 eV
  Excited state 16 (A)                                             [converged]
  Term symbol:  17 (-) A                                    R^2 =  4.62730e-10
  Excitation energy:                                             318.795906 eV
  Excited state 17 (A)                                         [not converged]
  Term symbol:  18 (-) A                                    R^2 =  5.91783e-04
  Excitation energy:                                             322.839829 eV
  Excited state 18 (A)                                             [converged]
  Term symbol:  19 (-) A                                    R^2 =  4.35109e-08
  Excitation energy:                                             322.852504 eV
  Excited state 19 (A)                                         [not converged]
  Term symbol:  20 (-) A                                    R^2 =  1.91679e-01
  Excitation energy:                                             323.714756 eV
  Excited state 20 (A)                                         [not converged]
  Term symbol:  21 (-) A                                    R^2 =  3.85378e-01
  Excitation energy:                                             324.989501 eV

                    Orbital Energies (a.u.)
 --------------------------------------------------------------

 Alpha MOs
 -- Occupied --
-26.544 -26.533 -26.501 -25.969 -11.735  -1.947  -1.851  -1.794
 -1.228  -1.111  -1.020  -1.008  -0.957  -0.855  -0.841  -0.825
 -0.798  -0.793  -0.336  -0.336  -0.323

 Beta MOs
 -- Occupied --
-26.544 -26.533 -26.501 -25.969 -11.735  -1.947  -1.851  -1.794
 -1.228  -1.111  -1.020  -1.008  -0.957  -0.855  -0.841  -0.825
 -0.798  -0.793  -0.336  -0.336  -0.323

          Ground-State Mulliken Net Atomic Charges

     Atom                 Charge (a.u.)    Spin (a.u.)
  --------------------------------------------------------
      1 C                     1.171732       0.000000
      2 F                    -0.087923       0.000000
      3 F                    -0.055977       0.000000
      4 F                    -0.860111       0.000000
      5 F                    -0.167720       0.000000
  --------------------------------------------------------
  Sum of atomic charges =     0.000000

                    Cartesian Multipole Moments
 -----------------------------------------------------------------
    Charge (ESU x 10^10)
                 0.0000
    Dipole Moment (Debye)
         X       3.6355      Y       9.4064      Z      -3.0369
       Tot      10.5318
    Quadrupole Moments (Debye-Ang)
        XX     -28.8433     XY      -0.8235     YY      14.1378
        XZ       3.1435     YZ      -3.8532     ZZ     -24.3116

 Total job time:  2107.07s(wall), 3416.85s(cpu)
        *  Thank you very much for using Q-Chem.  Have a nice day.  *
