 Q-Chem 4.3, Q-Chem, Inc., Pleasanton, CA (2015)
 Q-Chem 4.3.0 for Intel X86 Linux

User input:
--------------------------------------------------------------
$comment
XAS calculation for the 2b valence excited for water using cvs-adc(2)-x + 6-311+G* basis set
job 1 - determination of HF orbitals
$end

$molecule
0 1
6  -0.556013  2.810046  -0.159722
9  0.524168  2.265901  0.041138
9  -1.147495  3.336046  0.791509
9  -1.109631  0.963537  0.463297
9  -1.160452  2.544638  -1.190633
$end

$rem
jobtype      sp
sym_ignore true
exchange     hf
basis        6-31G*
unrestricted true
$end

--------------------------------------------------------------

    9    -435.4278030659      4.07E-06 Convergence criterion met
 Total energy in the final basis set = -435.4278030659
 Total job time:  2.68s(wall), 9.96s(cpu)
        *  Thank you very much for using Q-Chem.  Have a nice day.  *
 Q-Chem 4.3, Q-Chem, Inc., Pleasanton, CA (2015)
 Q-Chem 4.3.0 for Intel X86 Linux

User input:
--------------------------------------------------------------

$comment
job3 - cvs-adc(2) calculation
$end

$molecule
read
$end

$rem
mem_total 3000
mem_static 1500
sym_ignore true
scf_guess read
method cvs-adc(2)
basis 6-31G*
ee_singlets 20
cc_rest_occ 5                  !only excitations from the lowest N orbitals
unrestricted  true
max_scf_cycles 200
$end
--------------------------------------------------------------

             Standard Nuclear Orientation (Angstroms)
    I     Atom           X                Y                Z
 ----------------------------------------------------------------
    1      C      -0.5560130000     2.8100460000    -0.1597220000
    2      F       0.5241680000     2.2659010000     0.0411380000
    3      F      -1.1474950000     3.3360460000     0.7915090000
    4      F      -1.1096310000     0.9635370000     0.4632970000
    5      F      -1.1604520000     2.5446380000    -1.1906330000
 ----------------------------------------------------------------

    6    -435.4278031908      3.49E-09 Convergence criterion met
 Total energy in the final basis set = -435.4278031908
  Term symbol:  2 (-) A                                     R^2 =  3.59330e-11
  Excitation energy:                                             294.342174 eV
  Term symbol:  3 (-) A                                     R^2 =  4.39235e-10
  Excitation energy:                                             296.180440 eV
  Term symbol:  4 (-) A                                     R^2 =  3.05379e-12
  Excitation energy:                                             303.696706 eV
  Term symbol:  5 (-) A                                     R^2 =  1.12292e-11
  Excitation energy:                                             305.154605 eV
  Term symbol:  6 (-) A                                     R^2 =  7.43014e-11
  Excitation energy:                                             305.241754 eV
  Term symbol:  7 (-) A                                     R^2 =  1.18114e-10
  Excitation energy:                                             305.720177 eV
  Term symbol:  8 (-) A                                     R^2 =  3.41216e-11
  Excitation energy:                                             307.277282 eV
  Term symbol:  9 (-) A                                     R^2 =  7.15618e-11
  Excitation energy:                                             307.389999 eV
  Term symbol:  10 (-) A                                    R^2 =  3.41081e-10
  Excitation energy:                                             311.912112 eV
  Excited state 10 (A)                                             [converged]
  Term symbol:  11 (-) A                                    R^2 =  5.23198e-10
  Excitation energy:                                             313.457664 eV
  Excited state 11 (A)                                             [converged]
  Term symbol:  12 (-) A                                    R^2 =  2.55920e-11
  Excitation energy:                                             314.322233 eV
  Excited state 12 (A)                                             [converged]
  Term symbol:  13 (-) A                                    R^2 =  2.14927e-11
  Excitation energy:                                             314.468666 eV
  Excited state 13 (A)                                             [converged]
  Term symbol:  14 (-) A                                    R^2 =  1.27246e-10
  Excitation energy:                                             314.772322 eV
  Excited state 14 (A)                                             [converged]
  Term symbol:  15 (-) A                                    R^2 =  7.51459e-11
  Excitation energy:                                             314.877475 eV
  Excited state 15 (A)                                             [converged]
  Term symbol:  16 (-) A                                    R^2 =  2.46634e-10
  Excitation energy:                                             319.736604 eV
  Excited state 16 (A)                                             [converged]
  Term symbol:  17 (-) A                                    R^2 =  3.45209e-10
  Excitation energy:                                             320.251483 eV
  Excited state 17 (A)                                         [not converged]
  Term symbol:  18 (-) A                                    R^2 =  7.37328e-02
  Excitation energy:                                             330.828523 eV
  Excited state 18 (A)                                         [not converged]
  Term symbol:  19 (-) A                                    R^2 =  9.00272e-02
  Excitation energy:                                             330.870598 eV
  Excited state 19 (A)                                         [not converged]
  Term symbol:  20 (-) A                                    R^2 =  6.57018e-03
  Excitation energy:                                             330.915334 eV
  Excited state 20 (A)                                         [not converged]
  Term symbol:  21 (-) A                                    R^2 =  4.18085e-02
  Excitation energy:                                             330.930905 eV

                    Orbital Energies (a.u.)
 --------------------------------------------------------------

 Alpha MOs
 -- Occupied --
-26.490 -26.487 -26.473 -26.044 -11.698  -1.905  -1.808  -1.799
 -1.313  -1.074  -0.989  -0.984  -0.924  -0.820  -0.818  -0.802
 -0.793  -0.769  -0.410  -0.408  -0.403

 Beta MOs
 -- Occupied --
-26.490 -26.487 -26.473 -26.044 -11.698  -1.905  -1.808  -1.799
 -1.313  -1.074  -0.989  -0.984  -0.924  -0.820  -0.818  -0.802
 -0.793  -0.769  -0.410  -0.408  -0.403

          Ground-State Mulliken Net Atomic Charges

     Atom                 Charge (a.u.)    Spin (a.u.)
  --------------------------------------------------------
      1 C                     1.209462       0.000000
      2 F                    -0.128546       0.000000
      3 F                    -0.164565       0.000000
      4 F                    -0.775584       0.000000
      5 F                    -0.140767       0.000000
  --------------------------------------------------------
  Sum of atomic charges =     0.000000

                    Cartesian Multipole Moments
 -----------------------------------------------------------------
    Charge (ESU x 10^10)
                 0.0000
    Dipole Moment (Debye)
         X       2.0670      Y       6.6616      Z      -2.3161
       Tot       7.3494
    Quadrupole Moments (Debye-Ang)
        XX     -26.5080     XY      -1.3065     YY       2.9228
        XZ       2.1236     YZ      -3.7555     ZZ     -23.7214

 Total job time:  1773.53s(wall), 2953.29s(cpu)
        *  Thank you very much for using Q-Chem.  Have a nice day.  *
