 Q-Chem 4.3, Q-Chem, Inc., Pleasanton, CA (2015)
 Q-Chem 4.3.0 for Intel X86 Linux

User input:
--------------------------------------------------------------
$comment
XAS calculation for the 2b valence excited for water using cvs-adc(2)-x + 6-311+G* basis set
job 1 - determination of HF orbitals
$end

$molecule
0 1
6  -0.620926  2.805243  -0.127144
9  0.489865  2.391075  0.023939
9  -1.049062  3.624437  0.654218
9  -1.182589  0.306033  0.633815
9  -1.110085  2.790643  -1.22788
$end

$rem
jobtype      sp
sym_ignore true
exchange     hf
basis        6-31G*
unrestricted true
$end

--------------------------------------------------------------

   10    -435.3909217476      3.78E-06 Convergence criterion met
 Total energy in the final basis set = -435.3909217476
 Total job time:  2.78s(wall), 11.07s(cpu)
        *  Thank you very much for using Q-Chem.  Have a nice day.  *
 Q-Chem 4.3, Q-Chem, Inc., Pleasanton, CA (2015)
 Q-Chem 4.3.0 for Intel X86 Linux

User input:
--------------------------------------------------------------

$comment
job3 - cvs-adc(2) calculation
$end

$molecule
read
$end

$rem
mem_total 3000
mem_static 1500
sym_ignore true
scf_guess read
method cvs-adc(2)
basis 6-31G*
ee_singlets 20
cc_rest_occ 5                  !only excitations from the lowest N orbitals
unrestricted  true
max_scf_cycles 200
$end
--------------------------------------------------------------

             Standard Nuclear Orientation (Angstroms)
    I     Atom           X                Y                Z
 ----------------------------------------------------------------
    1      C      -0.6209260000     2.8052430000    -0.1271440000
    2      F       0.4898650000     2.3910750000     0.0239390000
    3      F      -1.0490620000     3.6244370000     0.6542180000
    4      F      -1.1825890000     0.3060330000     0.6338150000
    5      F      -1.1100850000     2.7906430000    -1.2278800000
 ----------------------------------------------------------------

    7    -435.3909220433      8.81E-09 Convergence criterion met
 Total energy in the final basis set = -435.3909220433
  Term symbol:  2 (-) A                                     R^2 =  1.91926e-13
  Excitation energy:                                             294.798342 eV
  Term symbol:  3 (-) A                                     R^2 =  1.94700e-13
  Excitation energy:                                             296.788223 eV
  Term symbol:  4 (-) A                                     R^2 =  5.57034e-13
  Excitation energy:                                             304.112727 eV
  Term symbol:  5 (-) A                                     R^2 =  3.28769e-13
  Excitation energy:                                             305.628866 eV
  Term symbol:  6 (-) A                                     R^2 =  1.50316e-13
  Excitation energy:                                             305.668694 eV
  Term symbol:  7 (-) A                                     R^2 =  2.09868e-13
  Excitation energy:                                             306.264130 eV
  Term symbol:  8 (-) A                                     R^2 =  1.61264e-13
  Excitation energy:                                             307.869755 eV
  Term symbol:  9 (-) A                                     R^2 =  2.32502e-13
  Excitation energy:                                             308.421005 eV
  Term symbol:  10 (-) A                                    R^2 =  8.57986e-13
  Excitation energy:                                             312.804563 eV
  Excited state 10 (A)                                             [converged]
  Term symbol:  11 (-) A                                    R^2 =  3.40590e-13
  Excitation energy:                                             314.089072 eV
  Excited state 11 (A)                                             [converged]
  Term symbol:  12 (-) A                                    R^2 =  3.20237e-13
  Excitation energy:                                             314.425640 eV
  Excited state 12 (A)                                             [converged]
  Term symbol:  13 (-) A                                    R^2 =  1.35425e-13
  Excitation energy:                                             314.712871 eV
  Excited state 13 (A)                                             [converged]
  Term symbol:  14 (-) A                                    R^2 =  2.38898e-13
  Excitation energy:                                             314.987145 eV
  Excited state 14 (A)                                             [converged]
  Term symbol:  15 (-) A                                    R^2 =  1.91635e-13
  Excitation energy:                                             315.124938 eV
  Excited state 15 (A)                                             [converged]
  Term symbol:  16 (-) A                                    R^2 =  9.40143e-13
  Excitation energy:                                             316.581604 eV
  Excited state 16 (A)                                             [converged]
  Term symbol:  17 (-) A                                    R^2 =  1.15191e-12
  Excitation energy:                                             317.586670 eV
  Excited state 17 (A)                                         [not converged]
  Term symbol:  18 (-) A                                    R^2 =  2.41661e-06
  Excitation energy:                                             330.221045 eV
  Excited state 18 (A)                                             [converged]
  Term symbol:  19 (-) A                                    R^2 =  3.69983e-08
  Excitation energy:                                             330.239532 eV
  Excited state 19 (A)                                         [not converged]
  Term symbol:  20 (-) A                                    R^2 =  5.72717e-02
  Excitation energy:                                             330.951345 eV
  Excited state 20 (A)                                         [not converged]
  Term symbol:  21 (-) A                                    R^2 =  1.38948e-01
  Excitation energy:                                             331.087973 eV

                    Orbital Energies (a.u.)
 --------------------------------------------------------------

 Alpha MOs
 -- Occupied --
-26.540 -26.535 -26.526 -26.020 -11.735  -1.978  -1.865  -1.864
 -1.261  -1.125  -1.046  -1.044  -0.988  -0.878  -0.871  -0.846
 -0.838  -0.816  -0.373  -0.373  -0.346

 Beta MOs
 -- Occupied --
-26.540 -26.535 -26.526 -26.020 -11.735  -1.978  -1.865  -1.864
 -1.261  -1.125  -1.046  -1.044  -0.988  -0.878  -0.871  -0.846
 -0.838  -0.816  -0.373  -0.373  -0.346

          Ground-State Mulliken Net Atomic Charges

     Atom                 Charge (a.u.)    Spin (a.u.)
  --------------------------------------------------------
      1 C                     1.084357       0.000000
      2 F                    -0.081643       0.000000
      3 F                    -0.124161       0.000000
      4 F                    -0.768595       0.000000
      5 F                    -0.109958       0.000000
  --------------------------------------------------------
  Sum of atomic charges =     0.000000

                    Cartesian Multipole Moments
 -----------------------------------------------------------------
    Charge (ESU x 10^10)
                 0.0000
    Dipole Moment (Debye)
         X       2.1060      Y       9.0396      Z      -2.7628
       Tot       9.6842
    Quadrupole Moments (Debye-Ang)
        XX     -26.4448     XY      -4.6359     YY       5.7279
        XZ       2.9253     YZ      -2.2412     ZZ     -24.2085

 Total job time:  1932.98s(wall), 3173.87s(cpu)
        *  Thank you very much for using Q-Chem.  Have a nice day.  *
