 Q-Chem 4.3, Q-Chem, Inc., Pleasanton, CA (2015)
 Q-Chem 4.3.0 for Intel X86 Linux

User input:
--------------------------------------------------------------
$comment
XAS calculation for the 2b valence excited for water using cvs-adc(2)-x + 6-311+G* basis set
job 1 - determination of HF orbitals
$end

$molecule
0 1
6  -0.607389  2.721088  -0.158023
9  0.642245  2.515381  -0.053673
9  -1.090596  3.549862  0.717854
9  -1.361296  0.316159  0.738595
9  -1.085202  2.801337  -1.291045
$end

$rem
jobtype      sp
sym_ignore true
exchange     hf
basis        6-31G*
unrestricted true
$end

--------------------------------------------------------------

   11    -435.3871913175      5.26E-06 Convergence criterion met
 Total energy in the final basis set = -435.3871913175
 Total job time:  2.90s(wall), 14.23s(cpu)
        *  Thank you very much for using Q-Chem.  Have a nice day.  *
 Q-Chem 4.3, Q-Chem, Inc., Pleasanton, CA (2015)
 Q-Chem 4.3.0 for Intel X86 Linux

User input:
--------------------------------------------------------------

$comment
job3 - cvs-adc(2) calculation
$end

$molecule
read
$end

$rem
mem_total 3000
mem_static 1500
sym_ignore true
scf_guess read
method cvs-adc(2)
basis 6-31G*
ee_singlets 20
cc_rest_occ 5                  !only excitations from the lowest N orbitals
unrestricted  true
max_scf_cycles 200
$end
--------------------------------------------------------------

             Standard Nuclear Orientation (Angstroms)
    I     Atom           X                Y                Z
 ----------------------------------------------------------------
    1      C      -0.6073890000     2.7210880000    -0.1580230000
    2      F       0.6422450000     2.5153810000    -0.0536730000
    3      F      -1.0905960000     3.5498620000     0.7178540000
    4      F      -1.3612960000     0.3161590000     0.7385950000
    5      F      -1.0852020000     2.8013370000    -1.2910450000
 ----------------------------------------------------------------

    8    -435.3871917427      3.90E-09 Convergence criterion met
 Total energy in the final basis set = -435.3871917427
  Term symbol:  2 (-) A                                     R^2 =  1.42951e-13
  Excitation energy:                                             294.383588 eV
  Term symbol:  3 (-) A                                     R^2 =  1.82659e-13
  Excitation energy:                                             296.287369 eV
  Term symbol:  4 (-) A                                     R^2 =  1.78539e-13
  Excitation energy:                                             302.402184 eV
  Term symbol:  5 (-) A                                     R^2 =  1.48056e-13
  Excitation energy:                                             303.161688 eV
  Term symbol:  6 (-) A                                     R^2 =  2.28050e-13
  Excitation energy:                                             304.307240 eV
  Term symbol:  7 (-) A                                     R^2 =  1.32400e-13
  Excitation energy:                                             304.447407 eV
  Term symbol:  8 (-) A                                     R^2 =  1.18403e-13
  Excitation energy:                                             305.177551 eV
  Term symbol:  9 (-) A                                     R^2 =  5.60381e-13
  Excitation energy:                                             306.320303 eV
  Term symbol:  10 (-) A                                    R^2 =  1.16093e-13
  Excitation energy:                                             313.203614 eV
  Excited state 10 (A)                                             [converged]
  Term symbol:  11 (-) A                                    R^2 =  1.10060e-13
  Excitation energy:                                             314.143320 eV
  Excited state 11 (A)                                             [converged]
  Term symbol:  12 (-) A                                    R^2 =  2.14085e-13
  Excitation energy:                                             314.279032 eV
  Excited state 12 (A)                                             [converged]
  Term symbol:  13 (-) A                                    R^2 =  9.11898e-14
  Excitation energy:                                             314.391508 eV
  Excited state 13 (A)                                             [converged]
  Term symbol:  14 (-) A                                    R^2 =  2.66473e-13
  Excitation energy:                                             314.740096 eV
  Excited state 14 (A)                                             [converged]
  Term symbol:  15 (-) A                                    R^2 =  4.36523e-13
  Excitation energy:                                             314.907705 eV
  Excited state 15 (A)                                             [converged]
  Term symbol:  16 (-) A                                    R^2 =  3.50872e-13
  Excitation energy:                                             315.531866 eV
  Excited state 16 (A)                                             [converged]
  Term symbol:  17 (-) A                                    R^2 =  1.22310e-12
  Excitation energy:                                             316.571919 eV
  Excited state 17 (A)                                             [converged]
  Term symbol:  18 (-) A                                    R^2 =  4.14943e-10
  Excitation energy:                                             328.276520 eV
  Excited state 18 (A)                                             [converged]
  Term symbol:  19 (-) A                                    R^2 =  6.54669e-10
  Excitation energy:                                             328.336133 eV
  Excited state 19 (A)                                         [not converged]
  Term symbol:  20 (-) A                                    R^2 =  1.76633e-01
  Excitation energy:                                             329.921826 eV
  Excited state 20 (A)                                         [not converged]
  Term symbol:  21 (-) A                                    R^2 =  4.35489e-05
  Excitation energy:                                             331.481311 eV

                    Orbital Energies (a.u.)
 --------------------------------------------------------------

 Alpha MOs
 -- Occupied --
-26.528 -26.506 -26.498 -26.097 -11.730  -1.915  -1.821  -1.791
 -1.319  -1.098  -0.997  -0.990  -0.938  -0.843  -0.837  -0.819
 -0.805  -0.790  -0.435  -0.435  -0.378

 Beta MOs
 -- Occupied --
-26.528 -26.506 -26.498 -26.097 -11.730  -1.915  -1.821  -1.791
 -1.319  -1.098  -0.997  -0.990  -0.938  -0.843  -0.837  -0.819
 -0.805  -0.790  -0.435  -0.435  -0.378

          Ground-State Mulliken Net Atomic Charges

     Atom                 Charge (a.u.)    Spin (a.u.)
  --------------------------------------------------------
      1 C                     1.157426       0.000000
      2 F                    -0.176716       0.000000
      3 F                    -0.209127       0.000000
      4 F                    -0.634557       0.000000
      5 F                    -0.137027       0.000000
  --------------------------------------------------------
  Sum of atomic charges =     0.000000

                    Cartesian Multipole Moments
 -----------------------------------------------------------------
    Charge (ESU x 10^10)
                 0.0000
    Dipole Moment (Debye)
         X       2.1999      Y       7.0617      Z      -2.9354
       Tot       7.9576
    Quadrupole Moments (Debye-Ang)
        XX     -27.7203     XY      -3.3829     YY      -1.5823
        XZ       3.4581     YZ      -3.0484     ZZ     -24.7452

 Total job time:  2018.47s(wall), 3339.19s(cpu)
        *  Thank you very much for using Q-Chem.  Have a nice day.  *
