 Q-Chem 4.3, Q-Chem, Inc., Pleasanton, CA (2015)
 Q-Chem 4.3.0 for Intel X86 Linux

User input:
--------------------------------------------------------------
$comment
XAS calculation for the 2b valence excited for water using cvs-adc(2)-x + 6-311+G* basis set
job 1 - determination of HF orbitals
$end

$molecule
0 1
6  -0.653486  2.425162  -0.00451
9  0.605142  2.346944  -0.002629
9  -1.136924  3.274034  0.783359
9  -1.151012  1.172823  0.441123
9  -1.141625  2.555518  -1.226867
$end

$rem
jobtype      sp
sym_ignore true
exchange     hf
basis        6-31G*
unrestricted true
$end

--------------------------------------------------------------

    8    -435.6298660597      3.98E-06 Convergence criterion met
 Total energy in the final basis set = -435.6298660597
 Total job time:  2.14s(wall), 9.80s(cpu)
        *  Thank you very much for using Q-Chem.  Have a nice day.  *
 Q-Chem 4.3, Q-Chem, Inc., Pleasanton, CA (2015)
 Q-Chem 4.3.0 for Intel X86 Linux

User input:
--------------------------------------------------------------

$comment
job3 - cvs-adc(2) calculation
$end

$molecule
read
$end

$rem
mem_total 3000
mem_static 1500
sym_ignore true
scf_guess read
method cvs-adc(2)
basis 6-31G*
ee_singlets 20
cc_rest_occ 5                  !only excitations from the lowest N orbitals
unrestricted  true
max_scf_cycles 200
$end
--------------------------------------------------------------

             Standard Nuclear Orientation (Angstroms)
    I     Atom           X                Y                Z
 ----------------------------------------------------------------
    1      C      -0.6534860000     2.4251620000    -0.0045100000
    2      F       0.6051420000     2.3469440000    -0.0026290000
    3      F      -1.1369240000     3.2740340000     0.7833590000
    4      F      -1.1510120000     1.1728230000     0.4411230000
    5      F      -1.1416250000     2.5555180000    -1.2268670000
 ----------------------------------------------------------------

    5    -435.6298661025      6.69E-09 Convergence criterion met
 Total energy in the final basis set = -435.6298661025
  Term symbol:  2 (-) A                                     R^2 =  1.36526e-12
  Excitation energy:                                             299.440780 eV
  Term symbol:  3 (-) A                                     R^2 =  2.07264e-12
  Excitation energy:                                             301.555899 eV
  Term symbol:  4 (-) A                                     R^2 =  3.09973e-12
  Excitation energy:                                             301.664646 eV
  Term symbol:  5 (-) A                                     R^2 =  9.84287e-13
  Excitation energy:                                             303.160288 eV
  Term symbol:  6 (-) A                                     R^2 =  6.37196e-12
  Excitation energy:                                             303.890881 eV
  Term symbol:  7 (-) A                                     R^2 =  6.39606e-13
  Excitation energy:                                             303.932731 eV
  Term symbol:  8 (-) A                                     R^2 =  3.56152e-12
  Excitation energy:                                             305.325446 eV
  Term symbol:  9 (-) A                                     R^2 =  3.26079e-12
  Excitation energy:                                             306.343287 eV
  Term symbol:  10 (-) A                                    R^2 =  2.05813e-13
  Excitation energy:                                             312.708376 eV
  Excited state 10 (A)                                             [converged]
  Term symbol:  11 (-) A                                    R^2 =  2.24592e-12
  Excitation energy:                                             313.516496 eV
  Excited state 11 (A)                                             [converged]
  Term symbol:  12 (-) A                                    R^2 =  1.38599e-12
  Excitation energy:                                             313.723368 eV
  Excited state 12 (A)                                             [converged]
  Term symbol:  13 (-) A                                    R^2 =  3.29632e-13
  Excitation energy:                                             313.913100 eV
  Excited state 13 (A)                                             [converged]
  Term symbol:  14 (-) A                                    R^2 =  9.20226e-13
  Excitation energy:                                             314.125821 eV
  Excited state 14 (A)                                             [converged]
  Term symbol:  15 (-) A                                    R^2 =  2.78126e-13
  Excitation energy:                                             314.336224 eV
  Excited state 15 (A)                                             [converged]
  Term symbol:  16 (-) A                                    R^2 =  6.87822e-13
  Excitation energy:                                             314.635488 eV
  Excited state 16 (A)                                             [converged]
  Term symbol:  17 (-) A                                    R^2 =  3.20782e-12
  Excitation energy:                                             315.072718 eV
  Excited state 17 (A)                                         [not converged]
  Term symbol:  18 (-) A                                    R^2 =  1.25553e-05
  Excitation energy:                                             330.205612 eV
  Excited state 18 (A)                                         [not converged]
  Term symbol:  19 (-) A                                    R^2 =  9.41279e-06
  Excitation energy:                                             330.233687 eV
  Excited state 19 (A)                                         [not converged]
  Term symbol:  20 (-) A                                    R^2 =  4.21165e-06
  Excitation energy:                                             330.300557 eV
  Excited state 20 (A)                                         [not converged]
  Term symbol:  21 (-) A                                    R^2 =  3.43175e-06
  Excitation energy:                                             330.324218 eV

                    Orbital Energies (a.u.)
 --------------------------------------------------------------

 Alpha MOs
 -- Occupied --
-26.401 -26.400 -26.374 -26.326 -11.612  -1.823  -1.721  -1.683
 -1.611  -1.011  -0.906  -0.896  -0.878  -0.766  -0.757  -0.728
 -0.711  -0.687  -0.667  -0.651  -0.647

 Beta MOs
 -- Occupied --
-26.401 -26.400 -26.374 -26.326 -11.612  -1.823  -1.721  -1.683
 -1.611  -1.011  -0.906  -0.896  -0.878  -0.766  -0.757  -0.728
 -0.711  -0.687  -0.667  -0.651  -0.647

          Ground-State Mulliken Net Atomic Charges

     Atom                 Charge (a.u.)    Spin (a.u.)
  --------------------------------------------------------
      1 C                     1.314402       0.000000
      2 F                    -0.276422       0.000000
      3 F                    -0.271041       0.000000
      4 F                    -0.425885       0.000000
      5 F                    -0.341053       0.000000
  --------------------------------------------------------
  Sum of atomic charges =     0.000000

                    Cartesian Multipole Moments
 -----------------------------------------------------------------
    Charge (ESU x 10^10)
                 0.0000
    Dipole Moment (Debye)
         X       0.5632      Y       0.9834      Z      -0.0034
       Tot       1.1332
    Quadrupole Moments (Debye-Ang)
        XX     -25.4462     XY       0.3428     YY     -20.6820
        XZ       0.0009     YZ       0.3838     ZZ     -24.9738

 Total job time:  1884.31s(wall), 3085.50s(cpu)
        *  Thank you very much for using Q-Chem.  Have a nice day.  *
