 Q-Chem 4.3, Q-Chem, Inc., Pleasanton, CA (2015)
 Q-Chem 4.3.0 for Intel X86 Linux

User input:
--------------------------------------------------------------
$comment
XAS calculation for the 2b valence excited for water using cvs-adc(2)-x + 6-311+G* basis set
job 1 - determination of HF orbitals
$end

$molecule
0 1
6  -0.437752  3.025246  -0.213432
9  0.578183  2.355272  -0.015059
9  -1.123002  3.26772  0.756448
9  -1.288071  0.786058  0.603845
9  -1.12782  2.56049  -1.215433
$end

$rem
jobtype      sp
sym_ignore true
exchange     hf
basis        6-31G*
unrestricted true
$end

--------------------------------------------------------------

   13    -435.3245609364      5.54E-06 Convergence criterion met
 Total energy in the final basis set = -435.3245609364
 Total job time:  23.94s(wall), 17.30s(cpu)
        *  Thank you very much for using Q-Chem.  Have a nice day.  *
 Q-Chem 4.3, Q-Chem, Inc., Pleasanton, CA (2015)
 Q-Chem 4.3.0 for Intel X86 Linux

User input:
--------------------------------------------------------------

$comment
job3 - cvs-adc(2) calculation
$end

$molecule
read
$end

$rem
mem_total 3000
mem_static 1500
sym_ignore true
scf_guess read
method cvs-adc(2)
basis 6-31G*
ee_singlets 20
cc_rest_occ 5                  !only excitations from the lowest N orbitals
unrestricted  true
max_scf_cycles 200
$end
--------------------------------------------------------------

             Standard Nuclear Orientation (Angstroms)
    I     Atom           X                Y                Z
 ----------------------------------------------------------------
    1      C      -0.4377520000     3.0252460000    -0.2134320000
    2      F       0.5781830000     2.3552720000    -0.0150590000
    3      F      -1.1230020000     3.2677200000     0.7564480000
    4      F      -1.2880710000     0.7860580000     0.6038450000
    5      F      -1.1278200000     2.5604900000    -1.2154330000
 ----------------------------------------------------------------

   11    -435.3245614866      3.98E-09 Convergence criterion met
 Total energy in the final basis set = -435.3245614866
  Term symbol:  2 (-) A                                     R^2 =  8.51455e-13
  Excitation energy:                                             292.883625 eV
  Term symbol:  3 (-) A                                     R^2 =  1.35863e-12
  Excitation energy:                                             294.586840 eV
  Term symbol:  4 (-) A                                     R^2 =  1.32863e-12
  Excitation energy:                                             302.384341 eV
  Term symbol:  5 (-) A                                     R^2 =  2.07122e-12
  Excitation energy:                                             304.301363 eV
  Term symbol:  6 (-) A                                     R^2 =  2.17235e-12
  Excitation energy:                                             304.427579 eV
  Term symbol:  7 (-) A                                     R^2 =  1.04942e-12
  Excitation energy:                                             304.912613 eV
  Term symbol:  8 (-) A                                     R^2 =  5.46246e-12
  Excitation energy:                                             306.278444 eV
  Term symbol:  9 (-) A                                     R^2 =  3.85696e-12
  Excitation energy:                                             306.858080 eV
  Term symbol:  10 (-) A                                    R^2 =  5.15430e-12
  Excitation energy:                                             311.878893 eV
  Excited state 10 (A)                                             [converged]
  Term symbol:  11 (-) A                                    R^2 =  1.08542e-11
  Excitation energy:                                             313.252696 eV
  Excited state 11 (A)                                             [converged]
  Term symbol:  12 (-) A                                    R^2 =  1.25093e-11
  Excitation energy:                                             313.419965 eV
  Excited state 12 (A)                                             [converged]
  Term symbol:  13 (-) A                                    R^2 =  3.95149e-12
  Excitation energy:                                             313.437992 eV
  Excited state 13 (A)                                             [converged]
  Term symbol:  14 (-) A                                    R^2 =  2.77863e-12
  Excitation energy:                                             313.792311 eV
  Excited state 14 (A)                                             [converged]
  Term symbol:  15 (-) A                                    R^2 =  2.10337e-12
  Excitation energy:                                             314.085664 eV
  Excited state 15 (A)                                             [converged]
  Term symbol:  16 (-) A                                    R^2 =  4.09420e-11
  Excitation energy:                                             318.256334 eV
  Excited state 16 (A)                                             [converged]
  Term symbol:  17 (-) A                                    R^2 =  1.07849e-11
  Excitation energy:                                             318.766251 eV
  Excited state 17 (A)                                         [not converged]
  Term symbol:  18 (-) A                                    R^2 =  2.89635e-04
  Excitation energy:                                             322.611501 eV
  Excited state 18 (A)                                             [converged]
  Term symbol:  19 (-) A                                    R^2 =  3.63915e-08
  Excitation energy:                                             322.628717 eV
  Excited state 19 (A)                                         [not converged]
  Term symbol:  20 (-) A                                    R^2 =  1.08869e-01
  Excitation energy:                                             323.211986 eV
  Excited state 20 (A)                                         [not converged]
  Term symbol:  21 (-) A                                    R^2 =  3.51052e-01
  Excitation energy:                                             324.513264 eV

                    Orbital Energies (a.u.)
 --------------------------------------------------------------

 Alpha MOs
 -- Occupied --
-26.537 -26.527 -26.496 -25.980 -11.729  -1.938  -1.841  -1.787
 -1.237  -1.105  -1.011  -1.000  -0.949  -0.849  -0.834  -0.817
 -0.792  -0.788  -0.345  -0.345  -0.328

 Beta MOs
 -- Occupied --
-26.537 -26.527 -26.496 -25.980 -11.729  -1.938  -1.841  -1.787
 -1.237  -1.105  -1.011  -1.000  -0.949  -0.849  -0.834  -0.817
 -0.792  -0.788  -0.345  -0.345  -0.328

          Ground-State Mulliken Net Atomic Charges

     Atom                 Charge (a.u.)    Spin (a.u.)
  --------------------------------------------------------
      1 C                     1.176741       0.000000
      2 F                    -0.094988       0.000000
      3 F                    -0.065918       0.000000
      4 F                    -0.844487       0.000000
      5 F                    -0.171348       0.000000
  --------------------------------------------------------
  Sum of atomic charges =     0.000000

                    Cartesian Multipole Moments
 -----------------------------------------------------------------
    Charge (ESU x 10^10)
                 0.0000
    Dipole Moment (Debye)
         X       3.5115      Y       9.0935      Z      -2.9329
       Tot      10.1796
    Quadrupole Moments (Debye-Ang)
        XX     -28.6482     XY      -0.6732     YY      13.1568
        XZ       2.9827     YZ      -3.8538     ZZ     -24.2705

 Total job time:  1968.92s(wall), 3215.54s(cpu)
        *  Thank you very much for using Q-Chem.  Have a nice day.  *
