 Q-Chem 4.3, Q-Chem, Inc., Pleasanton, CA (2015)
 Q-Chem 4.3.0 for Intel X86 Linux

User input:
--------------------------------------------------------------
$comment
XAS calculation for the 2b valence excited for water using cvs-adc(2)-x + 6-311+G* basis set
job 1 - determination of HF orbitals
$end

$molecule
0 1
6  -0.617913  2.740682  -0.116127
9  0.542307  2.276566  0.033801
9  -1.136763  3.315092  0.77925
9  -1.109564  1.019721  0.450874
9  -1.15041  2.542717  -1.186074
$end

$rem
jobtype      sp
sym_ignore true
exchange     hf
basis        6-31G*
unrestricted true
$end

--------------------------------------------------------------

    8    -435.4688934068      6.93E-06 Convergence criterion met
 Total energy in the final basis set = -435.4688934068
 Total job time:  2.23s(wall), 9.46s(cpu)
        *  Thank you very much for using Q-Chem.  Have a nice day.  *
 Q-Chem 4.3, Q-Chem, Inc., Pleasanton, CA (2015)
 Q-Chem 4.3.0 for Intel X86 Linux

User input:
--------------------------------------------------------------

$comment
job3 - cvs-adc(2) calculation
$end

$molecule
read
$end

$rem
mem_total 3000
mem_static 1500
sym_ignore true
scf_guess read
method cvs-adc(2)
basis 6-31G*
ee_singlets 20
cc_rest_occ 5                  !only excitations from the lowest N orbitals
unrestricted  true
max_scf_cycles 200
$end
--------------------------------------------------------------

             Standard Nuclear Orientation (Angstroms)
    I     Atom           X                Y                Z
 ----------------------------------------------------------------
    1      C      -0.6179130000     2.7406820000    -0.1161270000
    2      F       0.5423070000     2.2765660000     0.0338010000
    3      F      -1.1367630000     3.3150920000     0.7792500000
    4      F      -1.1095640000     1.0197210000     0.4508740000
    5      F      -1.1504100000     2.5427170000    -1.1860740000
 ----------------------------------------------------------------

    7    -435.4688933369      4.42E-09 Convergence criterion met
 Total energy in the final basis set = -435.4688933369
  Term symbol:  2 (-) A                                     R^2 =  5.71921e-14
  Excitation energy:                                             295.333108 eV
  Term symbol:  3 (-) A                                     R^2 =  7.33931e-14
  Excitation energy:                                             297.211440 eV
  Term symbol:  4 (-) A                                     R^2 =  6.20618e-14
  Excitation energy:                                             303.651738 eV
  Term symbol:  5 (-) A                                     R^2 =  5.52573e-14
  Excitation energy:                                             304.745856 eV
  Term symbol:  6 (-) A                                     R^2 =  3.19414e-14
  Excitation energy:                                             305.667886 eV
  Term symbol:  7 (-) A                                     R^2 =  9.01548e-14
  Excitation energy:                                             306.601252 eV
  Term symbol:  8 (-) A                                     R^2 =  1.10559e-13
  Excitation energy:                                             306.823950 eV
  Term symbol:  9 (-) A                                     R^2 =  2.60348e-14
  Excitation energy:                                             308.780051 eV
  Term symbol:  10 (-) A                                    R^2 =  7.95407e-14
  Excitation energy:                                             311.791133 eV
  Excited state 10 (A)                                             [converged]
  Term symbol:  11 (-) A                                    R^2 =  7.30219e-14
  Excitation energy:                                             313.377743 eV
  Excited state 11 (A)                                             [converged]
  Term symbol:  12 (-) A                                    R^2 =  7.24558e-14
  Excitation energy:                                             314.149016 eV
  Excited state 12 (A)                                             [converged]
  Term symbol:  13 (-) A                                    R^2 =  6.88431e-14
  Excitation energy:                                             314.535992 eV
  Excited state 13 (A)                                             [converged]
  Term symbol:  14 (-) A                                    R^2 =  8.91611e-14
  Excitation energy:                                             314.540324 eV
  Excited state 14 (A)                                             [converged]
  Term symbol:  15 (-) A                                    R^2 =  1.04872e-13
  Excitation energy:                                             314.981274 eV
  Excited state 15 (A)                                             [converged]
  Term symbol:  16 (-) A                                    R^2 =  1.06988e-12
  Excitation energy:                                             318.731858 eV
  Excited state 16 (A)                                             [converged]
  Term symbol:  17 (-) A                                    R^2 =  1.11856e-12
  Excitation energy:                                             319.194426 eV
  Excited state 17 (A)                                             [converged]
  Term symbol:  18 (-) A                                    R^2 =  1.00427e-07
  Excitation energy:                                             330.932925 eV
  Excited state 18 (A)                                             [converged]
  Term symbol:  19 (-) A                                    R^2 =  2.77880e-07
  Excitation energy:                                             331.095814 eV
  Excited state 19 (A)                                         [not converged]
  Term symbol:  20 (-) A                                    R^2 =  1.40975e-06
  Excitation energy:                                             331.467311 eV
  Excited state 20 (A)                                         [not converged]
  Term symbol:  21 (-) A                                    R^2 =  4.52267e-06
  Excitation energy:                                             331.613407 eV

                    Orbital Energies (a.u.)
 --------------------------------------------------------------

 Alpha MOs
 -- Occupied --
-26.489 -26.467 -26.433 -26.102 -11.670  -1.909  -1.818  -1.761
 -1.367  -1.065  -0.986  -0.970  -0.922  -0.812  -0.804  -0.802
 -0.770  -0.746  -0.460  -0.458  -0.450

 Beta MOs
 -- Occupied --
-26.489 -26.467 -26.433 -26.102 -11.670  -1.909  -1.818  -1.761
 -1.367  -1.065  -0.986  -0.970  -0.922  -0.812  -0.804  -0.802
 -0.770  -0.746  -0.460  -0.458  -0.450

          Ground-State Mulliken Net Atomic Charges

     Atom                 Charge (a.u.)    Spin (a.u.)
  --------------------------------------------------------
      1 C                     1.186831       0.000000
      2 F                    -0.205367       0.000000
      3 F                    -0.122432       0.000000
      4 F                    -0.703924       0.000000
      5 F                    -0.155109       0.000000
  --------------------------------------------------------
  Sum of atomic charges =     0.000000

                    Cartesian Multipole Moments
 -----------------------------------------------------------------
    Charge (ESU x 10^10)
                 0.0000
    Dipole Moment (Debye)
         X       1.2476      Y       5.5708      Z      -1.6991
       Tot       5.9563
    Quadrupole Moments (Debye-Ang)
        XX     -25.8318     XY      -2.3715     YY      -1.1598
        XZ       1.6002     YZ      -2.4636     ZZ     -23.7640

 Total job time:  2036.83s(wall), 3361.46s(cpu)
        *  Thank you very much for using Q-Chem.  Have a nice day.  *
