 Q-Chem 4.3, Q-Chem, Inc., Pleasanton, CA (2015)
 Q-Chem 4.3.0 for Intel X86 Linux

User input:
--------------------------------------------------------------
$comment
XAS calculation for the 2b valence excited for water using cvs-adc(2)-x + 6-311+G* basis set
job 1 - determination of HF orbitals
$end

$molecule
0 1
6  -0.35274  3.263974  -0.355735
9  0.699357  2.640258  -0.128284
9  -1.019324  3.510397  0.651672
9  -1.687418  -0.192846  1.029233
9  -1.003027  2.86505  -1.326196
$end

$rem
jobtype      sp
sym_ignore true
exchange     hf
basis        6-31G*
unrestricted true
$end

--------------------------------------------------------------

   14    -435.2515424906      2.78E-06 Convergence criterion met
 Total energy in the final basis set = -435.2515424906
 Total job time:  3.76s(wall), 15.57s(cpu)
        *  Thank you very much for using Q-Chem.  Have a nice day.  *
 Q-Chem 4.3, Q-Chem, Inc., Pleasanton, CA (2015)
 Q-Chem 4.3.0 for Intel X86 Linux

User input:
--------------------------------------------------------------

$comment
job3 - cvs-adc(2) calculation
$end

$molecule
read
$end

$rem
mem_total 3000
mem_static 1500
sym_ignore true
scf_guess read
method cvs-adc(2)
basis 6-31G*
ee_singlets 20
cc_rest_occ 5                  !only excitations from the lowest N orbitals
unrestricted  true
max_scf_cycles 200
$end
--------------------------------------------------------------

             Standard Nuclear Orientation (Angstroms)
    I     Atom           X                Y                Z
 ----------------------------------------------------------------
    1      C      -0.3527400000     3.2639740000    -0.3557350000
    2      F       0.6993570000     2.6402580000    -0.1282840000
    3      F      -1.0193240000     3.5103970000     0.6516720000
    4      F      -1.6874180000    -0.1928460000     1.0292330000
    5      F      -1.0030270000     2.8650500000    -1.3261960000
 ----------------------------------------------------------------

    7    -435.2515424898      7.17E-09 Convergence criterion met
 Total energy in the final basis set = -435.2515424898
  Term symbol:  2 (-) A                                     R^2 =  1.10594e-11
  Excitation energy:                                             292.866155 eV
  Term symbol:  3 (-) A                                     R^2 =  1.22709e-11
  Excitation energy:                                             294.719118 eV
  Term symbol:  4 (-) A                                     R^2 =  3.29893e-12
  Excitation energy:                                             304.226800 eV
  Term symbol:  5 (-) A                                     R^2 =  1.98486e-12
  Excitation energy:                                             304.489240 eV
  Term symbol:  6 (-) A                                     R^2 =  9.43702e-12
  Excitation energy:                                             304.736167 eV
  Term symbol:  7 (-) A                                     R^2 =  1.30854e-11
  Excitation energy:                                             306.241974 eV
  Term symbol:  8 (-) A                                     R^2 =  2.96218e-12
  Excitation energy:                                             306.499579 eV
  Term symbol:  9 (-) A                                     R^2 =  1.89011e-11
  Excitation energy:                                             306.659167 eV
  Term symbol:  10 (-) A                                    R^2 =  1.25467e-11
  Excitation energy:                                             312.873505 eV
  Excited state 10 (A)                                             [converged]
  Term symbol:  11 (-) A                                    R^2 =  6.53934e-11
  Excitation energy:                                             314.223696 eV
  Excited state 11 (A)                                             [converged]
  Term symbol:  12 (-) A                                    R^2 =  6.43718e-12
  Excitation energy:                                             314.339991 eV
  Excited state 12 (A)                                             [converged]
  Term symbol:  13 (-) A                                    R^2 =  1.98751e-12
  Excitation energy:                                             314.370666 eV
  Excited state 13 (A)                                             [converged]
  Term symbol:  14 (-) A                                    R^2 =  9.40783e-12
  Excitation energy:                                             314.848542 eV
  Excited state 14 (A)                                             [converged]
  Term symbol:  15 (-) A                                    R^2 =  6.45802e-12
  Excitation energy:                                             314.885426 eV
  Excited state 15 (A)                                             [converged]
  Term symbol:  16 (-) A                                    R^2 =  1.51886e-11
  Excitation energy:                                             315.501749 eV
  Excited state 16 (A)                                             [converged]
  Term symbol:  17 (-) A                                    R^2 =  7.48518e-12
  Excitation energy:                                             316.317369 eV
  Excited state 17 (A)                                         [not converged]
  Term symbol:  18 (-) A                                    R^2 =  5.79820e-01
  Excitation energy:                                             321.579694 eV
  Excited state 18 (A)                                             [converged]
  Term symbol:  19 (-) A                                    R^2 =  2.26687e-07
  Excitation energy:                                             332.463605 eV
  Excited state 19 (A)                                             [converged]
  Term symbol:  20 (-) A                                    R^2 =  3.77600e-07
  Excitation energy:                                             332.536206 eV
  Excited state 20 (A)                                         [not converged]
  Term symbol:  21 (-) A                                    R^2 =  1.06078e-03
  Excitation energy:                                             332.576400 eV

                    Orbital Energies (a.u.)
 --------------------------------------------------------------

 Alpha MOs
 -- Occupied --
-26.613 -26.610 -26.608 -25.833 -11.827  -2.028  -1.918  -1.911
 -1.190  -1.103  -1.098  -1.096  -1.044  -0.933  -0.932  -0.901
 -0.897  -0.882  -0.215  -0.214  -0.214

 Beta MOs
 -- Occupied --
-26.613 -26.610 -26.608 -25.833 -11.827  -2.028  -1.918  -1.911
 -1.190  -1.103  -1.098  -1.096  -1.044  -0.933  -0.932  -0.901
 -0.897  -0.882  -0.215  -0.214  -0.214

          Ground-State Mulliken Net Atomic Charges

     Atom                 Charge (a.u.)    Spin (a.u.)
  --------------------------------------------------------
      1 C                     1.246137       0.000000
      2 F                    -0.092327       0.000000
      3 F                    -0.075939       0.000000
      4 F                    -0.995048       0.000000
      5 F                    -0.082823       0.000000
  --------------------------------------------------------
  Sum of atomic charges =     0.000000

                    Cartesian Multipole Moments
 -----------------------------------------------------------------
    Charge (ESU x 10^10)
                 0.0000
    Dipole Moment (Debye)
         X       6.3224      Y      16.5212      Z      -6.5896
       Tot      18.8771
    Quadrupole Moments (Debye-Ang)
        XX     -35.1673     XY      -6.7723     YY      29.6071
        XZ       8.7325     YZ      -4.9547     ZZ     -26.6303

 Total job time:  2107.96s(wall), 3459.31s(cpu)
        *  Thank you very much for using Q-Chem.  Have a nice day.  *
