 Q-Chem 4.3, Q-Chem, Inc., Pleasanton, CA (2015)
 Q-Chem 4.3.0 for Intel X86 Linux

User input:
--------------------------------------------------------------
$comment
XAS calculation for the 2b valence excited for water using cvs-adc(2)-x + 6-311+G* basis set
job 1 - determination of HF orbitals
$end

$molecule
0 1
6  -0.62471  2.776493  -0.121028
9  0.489672  2.404192  0.020953
9  -1.044475  3.647919  0.649624
9  -1.187771  0.269994  0.643435
9  -1.106882  2.808187  -1.233816
$end

$rem
jobtype      sp
sym_ignore true
exchange     hf
basis        6-31G*
unrestricted true
$end

--------------------------------------------------------------

   10    -435.3868654282      5.70E-06 Convergence criterion met
 Total energy in the final basis set = -435.3868654282
 Total job time:  2.73s(wall), 12.82s(cpu)
        *  Thank you very much for using Q-Chem.  Have a nice day.  *
 Q-Chem 4.3, Q-Chem, Inc., Pleasanton, CA (2015)
 Q-Chem 4.3.0 for Intel X86 Linux

User input:
--------------------------------------------------------------

$comment
job3 - cvs-adc(2) calculation
$end

$molecule
read
$end

$rem
mem_total 3000
mem_static 1500
sym_ignore true
scf_guess read
method cvs-adc(2)
basis 6-31G*
ee_singlets 20
cc_rest_occ 5                  !only excitations from the lowest N orbitals
unrestricted  true
max_scf_cycles 200
$end
--------------------------------------------------------------

             Standard Nuclear Orientation (Angstroms)
    I     Atom           X                Y                Z
 ----------------------------------------------------------------
    1      C      -0.6247100000     2.7764930000    -0.1210280000
    2      F       0.4896720000     2.4041920000     0.0209530000
    3      F      -1.0444750000     3.6479190000     0.6496240000
    4      F      -1.1877710000     0.2699940000     0.6434350000
    5      F      -1.1068820000     2.8081870000    -1.2338160000
 ----------------------------------------------------------------

    8    -435.3868657772      5.88E-09 Convergence criterion met
 Total energy in the final basis set = -435.3868657772
  Term symbol:  2 (-) A                                     R^2 =  1.18645e-12
  Excitation energy:                                             294.620176 eV
  Term symbol:  3 (-) A                                     R^2 =  9.39198e-12
  Excitation energy:                                             296.600464 eV
  Term symbol:  4 (-) A                                     R^2 =  5.63111e-13
  Excitation energy:                                             304.017796 eV
  Term symbol:  5 (-) A                                     R^2 =  9.51734e-13
  Excitation energy:                                             304.960673 eV
  Term symbol:  6 (-) A                                     R^2 =  7.22256e-13
  Excitation energy:                                             305.740071 eV
  Term symbol:  7 (-) A                                     R^2 =  5.50885e-13
  Excitation energy:                                             306.361028 eV
  Term symbol:  8 (-) A                                     R^2 =  3.28732e-13
  Excitation energy:                                             307.050838 eV
  Term symbol:  9 (-) A                                     R^2 =  1.28473e-13
  Excitation energy:                                             308.413542 eV
  Term symbol:  10 (-) A                                    R^2 =  1.24715e-12
  Excitation energy:                                             312.905704 eV
  Excited state 10 (A)                                             [converged]
  Term symbol:  11 (-) A                                    R^2 =  2.95365e-12
  Excitation energy:                                             314.102933 eV
  Excited state 11 (A)                                             [converged]
  Term symbol:  12 (-) A                                    R^2 =  4.92237e-12
  Excitation energy:                                             314.321536 eV
  Excited state 12 (A)                                             [converged]
  Term symbol:  13 (-) A                                    R^2 =  5.86822e-13
  Excitation energy:                                             314.542181 eV
  Excited state 13 (A)                                             [converged]
  Term symbol:  14 (-) A                                    R^2 =  2.72860e-12
  Excitation energy:                                             314.897263 eV
  Excited state 14 (A)                                             [converged]
  Term symbol:  15 (-) A                                    R^2 =  2.04434e-12
  Excitation energy:                                             314.983258 eV
  Excited state 15 (A)                                             [converged]
  Term symbol:  16 (-) A                                    R^2 =  6.27931e-12
  Excitation energy:                                             316.267887 eV
  Excited state 16 (A)                                             [converged]
  Term symbol:  17 (-) A                                    R^2 =  1.83063e-09
  Excitation energy:                                             317.310388 eV
  Excited state 17 (A)                                             [converged]
  Term symbol:  18 (-) A                                    R^2 =  3.36940e-07
  Excitation energy:                                             329.447116 eV
  Excited state 18 (A)                                         [not converged]
  Term symbol:  19 (-) A                                    R^2 =  3.74944e-05
  Excitation energy:                                             329.474180 eV
  Excited state 19 (A)                                         [not converged]
  Term symbol:  20 (-) A                                    R^2 =  1.59855e-04
  Excitation energy:                                             331.640365 eV
  Excited state 20 (A)                                         [not converged]
  Term symbol:  21 (-) A                                    R^2 =  4.19409e-04
  Excitation energy:                                             331.828149 eV

                    Orbital Energies (a.u.)
 --------------------------------------------------------------

 Alpha MOs
 -- Occupied --
-26.530 -26.529 -26.525 -26.038 -11.733  -1.970  -1.865  -1.844
 -1.275  -1.120  -1.039  -1.036  -0.981  -0.874  -0.864  -0.838
 -0.834  -0.811  -0.388  -0.388  -0.353

 Beta MOs
 -- Occupied --
-26.530 -26.529 -26.525 -26.038 -11.733  -1.970  -1.865  -1.844
 -1.275  -1.120  -1.039  -1.036  -0.981  -0.874  -0.864  -0.838
 -0.834  -0.811  -0.388  -0.388  -0.353

          Ground-State Mulliken Net Atomic Charges

     Atom                 Charge (a.u.)    Spin (a.u.)
  --------------------------------------------------------
      1 C                     1.085243       0.000000
      2 F                    -0.067477       0.000000
      3 F                    -0.158380       0.000000
      4 F                    -0.737268       0.000000
      5 F                    -0.122119       0.000000
  --------------------------------------------------------
  Sum of atomic charges =     0.000000

                    Cartesian Multipole Moments
 -----------------------------------------------------------------
    Charge (ESU x 10^10)
                 0.0000
    Dipole Moment (Debye)
         X       2.1239      Y       8.5678      Z      -2.6878
       Tot       9.2273
    Quadrupole Moments (Debye-Ang)
        XX     -26.4631     XY      -4.1727     YY       3.2710
        XZ       2.8641     YZ      -2.1521     ZZ     -24.3467

 Total job time:  2265.73s(wall), 3676.37s(cpu)
        *  Thank you very much for using Q-Chem.  Have a nice day.  *
