 Q-Chem 4.3, Q-Chem, Inc., Pleasanton, CA (2015)
 Q-Chem 4.3.0 for Intel X86 Linux

User input:
--------------------------------------------------------------
$comment
XAS calculation for the 2b valence excited for water using cvs-adc(2)-x + 6-311+G* basis set
job 1 - determination of HF orbitals
$end

$molecule
0 1
6  -0.519517  2.651552  -0.174392
9  0.783684  2.700218  -0.176931
9  -1.035816  3.298374  0.710084
9  -1.683413  0.401419  0.910314
9  -0.959667  2.795557  -1.334883
$end

$rem
jobtype      sp
sym_ignore true
exchange     hf
basis        6-31G*
unrestricted true
$end

--------------------------------------------------------------

   12    -435.3647748286      3.91E-06 Convergence criterion met
 Total energy in the final basis set = -435.3647748286
 Total job time:  2.87s(wall), 17.13s(cpu)
        *  Thank you very much for using Q-Chem.  Have a nice day.  *
 Q-Chem 4.3, Q-Chem, Inc., Pleasanton, CA (2015)
 Q-Chem 4.3.0 for Intel X86 Linux

User input:
--------------------------------------------------------------

$comment
job3 - cvs-adc(2) calculation
$end

$molecule
read
$end

$rem
mem_total 3000
mem_static 1500
sym_ignore true
scf_guess read
method cvs-adc(2)
basis 6-31G*
ee_singlets 20
cc_rest_occ 5                  !only excitations from the lowest N orbitals
unrestricted  true
max_scf_cycles 200
$end
--------------------------------------------------------------

             Standard Nuclear Orientation (Angstroms)
    I     Atom           X                Y                Z
 ----------------------------------------------------------------
    1      C      -0.5195170000     2.6515520000    -0.1743920000
    2      F       0.7836840000     2.7002180000    -0.1769310000
    3      F      -1.0358160000     3.2983740000     0.7100840000
    4      F      -1.6834130000     0.4014190000     0.9103140000
    5      F      -0.9596670000     2.7955570000    -1.3348830000
 ----------------------------------------------------------------

    8    -435.3647749723      4.25E-09 Convergence criterion met
 Total energy in the final basis set = -435.3647749723
  Term symbol:  2 (-) A                                     R^2 =  3.58174e-14
  Excitation energy:                                             294.108762 eV
  Term symbol:  3 (-) A                                     R^2 =  4.19753e-14
  Excitation energy:                                             295.979514 eV
  Term symbol:  4 (-) A                                     R^2 =  5.68890e-14
  Excitation energy:                                             302.279368 eV
  Term symbol:  5 (-) A                                     R^2 =  8.02327e-14
  Excitation energy:                                             303.793652 eV
  Term symbol:  6 (-) A                                     R^2 =  7.67818e-14
  Excitation energy:                                             304.385681 eV
  Term symbol:  7 (-) A                                     R^2 =  4.00730e-14
  Excitation energy:                                             304.973275 eV
  Term symbol:  8 (-) A                                     R^2 =  1.14229e-13
  Excitation energy:                                             305.773374 eV
  Term symbol:  9 (-) A                                     R^2 =  5.24566e-14
  Excitation energy:                                             306.869866 eV
  Term symbol:  10 (-) A                                    R^2 =  1.21534e-13
  Excitation energy:                                             313.234123 eV
  Excited state 10 (A)                                             [converged]
  Term symbol:  11 (-) A                                    R^2 =  3.61343e-13
  Excitation energy:                                             313.822559 eV
  Excited state 11 (A)                                             [converged]
  Term symbol:  12 (-) A                                    R^2 =  1.61984e-13
  Excitation energy:                                             313.940686 eV
  Excited state 12 (A)                                             [converged]
  Term symbol:  13 (-) A                                    R^2 =  3.13949e-13
  Excitation energy:                                             314.045638 eV
  Excited state 13 (A)                                             [converged]
  Term symbol:  14 (-) A                                    R^2 =  1.22327e-13
  Excitation energy:                                             314.412310 eV
  Excited state 14 (A)                                             [converged]
  Term symbol:  15 (-) A                                    R^2 =  1.78211e-13
  Excitation energy:                                             314.555673 eV
  Excited state 15 (A)                                             [converged]
  Term symbol:  16 (-) A                                    R^2 =  2.77026e-13
  Excitation energy:                                             314.955006 eV
  Excited state 16 (A)                                             [converged]
  Term symbol:  17 (-) A                                    R^2 =  7.44628e-13
  Excitation energy:                                             316.017173 eV
  Excited state 17 (A)                                             [converged]
  Term symbol:  18 (-) A                                    R^2 =  7.98518e-12
  Excitation energy:                                             326.712915 eV
  Excited state 18 (A)                                             [converged]
  Term symbol:  19 (-) A                                    R^2 =  1.35574e-11
  Excitation energy:                                             326.781166 eV
  Excited state 19 (A)                                         [not converged]
  Term symbol:  20 (-) A                                    R^2 =  2.98339e-05
  Excitation energy:                                             331.249415 eV
  Excited state 20 (A)                                         [not converged]
  Term symbol:  21 (-) A                                    R^2 =  3.18296e-05
  Excitation energy:                                             331.399953 eV

                    Orbital Energies (a.u.)
 --------------------------------------------------------------

 Alpha MOs
 -- Occupied --
-26.519 -26.513 -26.493 -26.100 -11.725  -1.928  -1.833  -1.788
 -1.321  -1.101  -1.005  -0.994  -0.945  -0.852  -0.835  -0.819
 -0.801  -0.787  -0.438  -0.438  -0.374

 Beta MOs
 -- Occupied --
-26.519 -26.513 -26.493 -26.100 -11.725  -1.928  -1.833  -1.788
 -1.321  -1.101  -1.005  -0.994  -0.945  -0.852  -0.835  -0.819
 -0.801  -0.787  -0.438  -0.438  -0.374

          Ground-State Mulliken Net Atomic Charges

     Atom                 Charge (a.u.)    Spin (a.u.)
  --------------------------------------------------------
      1 C                     1.120838       0.000000
      2 F                    -0.225991       0.000000
      3 F                    -0.105579       0.000000
      4 F                    -0.625695       0.000000
      5 F                    -0.163573       0.000000
  --------------------------------------------------------
  Sum of atomic charges =     0.000000

                    Cartesian Multipole Moments
 -----------------------------------------------------------------
    Charge (ESU x 10^10)
                 0.0000
    Dipole Moment (Debye)
         X       3.0651      Y       6.5845      Z      -3.0374
       Tot       7.8725
    Quadrupole Moments (Debye-Ang)
        XX     -30.7878     XY      -2.8266     YY      -2.5269
        XZ       4.5734     YZ      -2.1904     ZZ     -25.5860

 Total job time:  2160.67s(wall), 3499.12s(cpu)
        *  Thank you very much for using Q-Chem.  Have a nice day.  *
