 Q-Chem 4.3, Q-Chem, Inc., Pleasanton, CA (2015)
 Q-Chem 4.3.0 for Intel X86 Linux

User input:
--------------------------------------------------------------
$comment
XAS calculation for the 2b valence excited for water using cvs-adc(2)-x + 6-311+G* basis set
job 1 - determination of HF orbitals
$end

$molecule
0 1
6  -0.645137  2.460869  -0.017094
9  0.60155  2.344365  -0.002297
9  -1.136015  3.266808  0.781526
9  -1.155078  1.162328  0.446249
9  -1.14099  2.552803  -1.224827
$end

$rem
jobtype      sp
sym_ignore true
exchange     hf
basis        6-31G*
unrestricted true
$end

--------------------------------------------------------------

    8    -435.6172797840      4.93E-06 Convergence criterion met
 Total energy in the final basis set = -435.6172797840
 Total job time:  2.27s(wall), 9.62s(cpu)
        *  Thank you very much for using Q-Chem.  Have a nice day.  *
 Q-Chem 4.3, Q-Chem, Inc., Pleasanton, CA (2015)
 Q-Chem 4.3.0 for Intel X86 Linux

User input:
--------------------------------------------------------------

$comment
job3 - cvs-adc(2) calculation
$end

$molecule
read
$end

$rem
mem_total 3000
mem_static 1500
sym_ignore true
scf_guess read
method cvs-adc(2)
basis 6-31G*
ee_singlets 20
cc_rest_occ 5                  !only excitations from the lowest N orbitals
unrestricted  true
max_scf_cycles 200
$end
--------------------------------------------------------------

             Standard Nuclear Orientation (Angstroms)
    I     Atom           X                Y                Z
 ----------------------------------------------------------------
    1      C      -0.6451370000     2.4608690000    -0.0170940000
    2      F       0.6015500000     2.3443650000    -0.0022970000
    3      F      -1.1360150000     3.2668080000     0.7815260000
    4      F      -1.1550780000     1.1623280000     0.4462490000
    5      F      -1.1409900000     2.5528030000    -1.2248270000
 ----------------------------------------------------------------

    6    -435.6172798546      3.68E-09 Convergence criterion met
 Total energy in the final basis set = -435.6172798546
  Term symbol:  2 (-) A                                     R^2 =  8.00771e-09
  Excitation energy:                                             298.715863 eV
  Term symbol:  3 (-) A                                     R^2 =  1.85525e-09
  Excitation energy:                                             300.814472 eV
  Term symbol:  4 (-) A                                     R^2 =  7.72423e-09
  Excitation energy:                                             302.096543 eV
  Term symbol:  5 (-) A                                     R^2 =  2.28279e-08
  Excitation energy:                                             303.608909 eV
  Term symbol:  6 (-) A                                     R^2 =  3.87592e-09
  Excitation energy:                                             304.222030 eV
  Term symbol:  7 (-) A                                     R^2 =  1.86518e-08
  Excitation energy:                                             304.356264 eV
  Term symbol:  8 (-) A                                     R^2 =  1.17207e-08
  Excitation energy:                                             305.819936 eV
  Term symbol:  9 (-) A                                     R^2 =  9.26521e-09
  Excitation energy:                                             306.459352 eV
  Term symbol:  10 (-) A                                    R^2 =  7.44493e-08
  Excitation energy:                                             312.397942 eV
  Excited state 10 (A)                                             [converged]
  Term symbol:  11 (-) A                                    R^2 =  6.94207e-08
  Excitation energy:                                             313.336034 eV
  Excited state 11 (A)                                             [converged]
  Term symbol:  12 (-) A                                    R^2 =  1.67738e-08
  Excitation energy:                                             313.798032 eV
  Excited state 12 (A)                                             [converged]
  Term symbol:  13 (-) A                                    R^2 =  6.25780e-08
  Excitation energy:                                             313.975556 eV
  Excited state 13 (A)                                             [converged]
  Term symbol:  14 (-) A                                    R^2 =  1.25152e-08
  Excitation energy:                                             314.190301 eV
  Excited state 14 (A)                                             [converged]
  Term symbol:  15 (-) A                                    R^2 =  5.80259e-09
  Excitation energy:                                             314.403324 eV
  Excited state 15 (A)                                             [converged]
  Term symbol:  16 (-) A                                    R^2 =  1.45402e-08
  Excitation energy:                                             315.051925 eV
  Excited state 16 (A)                                             [converged]
  Term symbol:  17 (-) A                                    R^2 =  5.73860e-08
  Excitation energy:                                             315.474631 eV
  Excited state 17 (A)                                         [not converged]
  Term symbol:  18 (-) A                                    R^2 =  2.53640e-05
  Excitation energy:                                             330.313494 eV
  Excited state 18 (A)                                         [not converged]
  Term symbol:  19 (-) A                                    R^2 =  1.85522e-05
  Excitation energy:                                             330.343865 eV
  Excited state 19 (A)                                         [not converged]
  Term symbol:  20 (-) A                                    R^2 =  9.10614e-06
  Excitation energy:                                             330.451271 eV
  Excited state 20 (A)                                         [not converged]
  Term symbol:  21 (-) A                                    R^2 =  1.93050e-05
  Excitation energy:                                             330.474242 eV

                    Orbital Energies (a.u.)
 --------------------------------------------------------------

 Alpha MOs
 -- Occupied --
-26.409 -26.407 -26.382 -26.302 -11.614  -1.834  -1.734  -1.695
 -1.580  -1.016  -0.915  -0.905  -0.879  -0.770  -0.761  -0.737
 -0.720  -0.695  -0.644  -0.632  -0.629

 Beta MOs
 -- Occupied --
-26.409 -26.407 -26.382 -26.302 -11.614  -1.834  -1.734  -1.695
 -1.580  -1.016  -0.915  -0.905  -0.879  -0.770  -0.761  -0.737
 -0.720  -0.695  -0.644  -0.632  -0.629

          Ground-State Mulliken Net Atomic Charges

     Atom                 Charge (a.u.)    Spin (a.u.)
  --------------------------------------------------------
      1 C                     1.298499       0.000000
      2 F                    -0.264273       0.000000
      3 F                    -0.246322       0.000000
      4 F                    -0.462455       0.000000
      5 F                    -0.325449       0.000000
  --------------------------------------------------------
  Sum of atomic charges =     0.000000

                    Cartesian Multipole Moments
 -----------------------------------------------------------------
    Charge (ESU x 10^10)
                 0.0000
    Dipole Moment (Debye)
         X       0.6810      Y       1.4574      Z      -0.1577
       Tot       1.6164
    Quadrupole Moments (Debye-Ang)
        XX     -25.5341     XY       0.1518     YY     -18.6184
        XZ       0.1539     YZ       0.1677     ZZ     -24.8567

 Total job time:  2536.27s(wall), 4203.85s(cpu)
        *  Thank you very much for using Q-Chem.  Have a nice day.  *
