 Q-Chem 4.3, Q-Chem, Inc., Pleasanton, CA (2015)
 Q-Chem 4.3.0 for Intel X86 Linux

User input:
--------------------------------------------------------------
$comment
XAS calculation for the 2b valence excited for water using cvs-adc(2)-x + 6-311+G* basis set
job 1 - determination of HF orbitals
$end

$molecule
0 1
6  -0.460404  2.989863  -0.242225
9  0.491727  2.263263  0.055647
9  -1.144561  3.432052  0.779701
9  -1.129137  0.700667  0.528612
9  -1.171127  2.599996  -1.206917
$end

$rem
jobtype      sp
sym_ignore true
exchange     hf
basis        6-31G*
unrestricted true
$end

--------------------------------------------------------------

   14    -435.3339321201      6.52E-06 Convergence criterion met
 Total energy in the final basis set = -435.3339321201
 Total job time:  3.49s(wall), 16.72s(cpu)
        *  Thank you very much for using Q-Chem.  Have a nice day.  *
 Q-Chem 4.3, Q-Chem, Inc., Pleasanton, CA (2015)
 Q-Chem 4.3.0 for Intel X86 Linux

User input:
--------------------------------------------------------------

$comment
job3 - cvs-adc(2) calculation
$end

$molecule
read
$end

$rem
mem_total 3000
mem_static 1500
sym_ignore true
scf_guess read
method cvs-adc(2)
basis 6-31G*
ee_singlets 20
cc_rest_occ 5                  !only excitations from the lowest N orbitals
unrestricted  true
max_scf_cycles 200
$end
--------------------------------------------------------------

             Standard Nuclear Orientation (Angstroms)
    I     Atom           X                Y                Z
 ----------------------------------------------------------------
    1      C      -0.4604040000     2.9898630000    -0.2422250000
    2      F       0.4917270000     2.2632630000     0.0556470000
    3      F      -1.1445610000     3.4320520000     0.7797010000
    4      F      -1.1291370000     0.7006670000     0.5286120000
    5      F      -1.1711270000     2.5999960000    -1.2069170000
 ----------------------------------------------------------------

   10    -435.3339332571      9.67E-09 Convergence criterion met
 Total energy in the final basis set = -435.3339332571
  Term symbol:  2 (-) A                                     R^2 =  4.13862e-14
  Excitation energy:                                             293.012012 eV
  Term symbol:  3 (-) A                                     R^2 =  4.34488e-14
  Excitation energy:                                             294.734748 eV
  Term symbol:  4 (-) A                                     R^2 =  8.15913e-14
  Excitation energy:                                             302.291662 eV
  Term symbol:  5 (-) A                                     R^2 =  3.36335e-14
  Excitation energy:                                             303.505216 eV
  Term symbol:  6 (-) A                                     R^2 =  3.54751e-14
  Excitation energy:                                             304.272910 eV
  Term symbol:  7 (-) A                                     R^2 =  5.92886e-14
  Excitation energy:                                             304.383229 eV
  Term symbol:  8 (-) A                                     R^2 =  2.66576e-14
  Excitation energy:                                             305.536562 eV
  Term symbol:  9 (-) A                                     R^2 =  2.32266e-14
  Excitation energy:                                             306.234015 eV
  Term symbol:  10 (-) A                                    R^2 =  6.50815e-14
  Excitation energy:                                             312.094008 eV
  Excited state 10 (A)                                             [converged]
  Term symbol:  11 (-) A                                    R^2 =  2.66128e-13
  Excitation energy:                                             313.525135 eV
  Excited state 11 (A)                                             [converged]
  Term symbol:  12 (-) A                                    R^2 =  1.32665e-13
  Excitation energy:                                             313.699742 eV
  Excited state 12 (A)                                             [converged]
  Term symbol:  13 (-) A                                    R^2 =  1.23728e-13
  Excitation energy:                                             313.710926 eV
  Excited state 13 (A)                                             [converged]
  Term symbol:  14 (-) A                                    R^2 =  2.52413e-13
  Excitation energy:                                             314.202689 eV
  Excited state 14 (A)                                             [converged]
  Term symbol:  15 (-) A                                    R^2 =  2.04663e-13
  Excitation energy:                                             314.294355 eV
  Excited state 15 (A)                                             [converged]
  Term symbol:  16 (-) A                                    R^2 =  3.41931e-13
  Excitation energy:                                             318.357969 eV
  Excited state 16 (A)                                             [converged]
  Term symbol:  17 (-) A                                    R^2 =  7.48397e-13
  Excitation energy:                                             318.924771 eV
  Excited state 17 (A)                                             [converged]
  Term symbol:  18 (-) A                                    R^2 =  1.92891e-07
  Excitation energy:                                             323.091512 eV
  Excited state 18 (A)                                             [converged]
  Term symbol:  19 (-) A                                    R^2 =  1.16872e-10
  Excitation energy:                                             323.105668 eV
  Excited state 19 (A)                                             [converged]
  Term symbol:  20 (-) A                                    R^2 =  4.44471e-09
  Excitation energy:                                             323.541436 eV
  Excited state 20 (A)                                             [converged]
  Term symbol:  21 (-) A                                    R^2 =  8.43952e-07
  Excitation energy:                                             323.541586 eV

                    Orbital Energies (a.u.)
 --------------------------------------------------------------

 Alpha MOs
 -- Occupied --
-26.532 -26.524 -26.509 -25.981 -11.736  -1.916  -1.824  -1.795
 -1.239  -1.099  -0.998  -0.994  -0.936  -0.842  -0.834  -0.810
 -0.804  -0.795  -0.347  -0.347  -0.330

 Beta MOs
 -- Occupied --
-26.532 -26.524 -26.509 -25.981 -11.736  -1.916  -1.824  -1.795
 -1.239  -1.099  -0.998  -0.994  -0.936  -0.842  -0.834  -0.810
 -0.804  -0.795  -0.347  -0.347  -0.330

          Ground-State Mulliken Net Atomic Charges

     Atom                 Charge (a.u.)    Spin (a.u.)
  --------------------------------------------------------
      1 C                     1.216343       0.000000
      2 F                    -0.060472       0.000000
      3 F                    -0.184356       0.000000
      4 F                    -0.844889       0.000000
      5 F                    -0.126627       0.000000
  --------------------------------------------------------
  Sum of atomic charges =     0.000000

                    Cartesian Multipole Moments
 -----------------------------------------------------------------
    Charge (ESU x 10^10)
                 0.0000
    Dipole Moment (Debye)
         X       3.0152      Y       8.9772      Z      -3.2485
       Tot      10.0117
    Quadrupole Moments (Debye-Ang)
        XX     -27.2333     XY      -0.9624     YY      10.7351
        XZ       2.8443     YZ      -5.2929     ZZ     -23.7426

 Total job time:  1912.20s(wall), 3136.22s(cpu)
        *  Thank you very much for using Q-Chem.  Have a nice day.  *
