 Q-Chem 4.3, Q-Chem, Inc., Pleasanton, CA (2015)
 Q-Chem 4.3.0 for Intel X86 Linux

User input:
--------------------------------------------------------------
$comment
XAS calculation for the 2b valence excited for water using cvs-adc(2)-x + 6-311+G* basis set
job 1 - determination of HF orbitals
$end

$molecule
0 1
6  -0.669598  2.661386  -0.076023
9  0.559635  2.291417  0.025484
9  -1.128254  3.298714  0.770141
9  -1.112079  1.070535  0.440892
9  -1.141165  2.543651  -1.183887
$end

$rem
jobtype      sp
sym_ignore true
exchange     hf
basis        6-31G*
unrestricted true
$end

--------------------------------------------------------------

    8    -435.5103330755      8.64E-06 Convergence criterion met
 Total energy in the final basis set = -435.5103330755
 Total job time:  2.09s(wall), 7.39s(cpu)
        *  Thank you very much for using Q-Chem.  Have a nice day.  *
 Q-Chem 4.3, Q-Chem, Inc., Pleasanton, CA (2015)
 Q-Chem 4.3.0 for Intel X86 Linux

User input:
--------------------------------------------------------------

$comment
job3 - cvs-adc(2) calculation
$end

$molecule
read
$end

$rem
mem_total 3000
mem_static 1500
sym_ignore true
scf_guess read
method cvs-adc(2)
basis 6-31G*
ee_singlets 20
cc_rest_occ 1                  !only excitations from the lowest N orbitals
unrestricted  true
max_scf_cycles 200
$end
--------------------------------------------------------------

             Standard Nuclear Orientation (Angstroms)
    I     Atom           X                Y                Z
 ----------------------------------------------------------------
    1      C      -0.6695980000     2.6613860000    -0.0760230000
    2      F       0.5596350000     2.2914170000     0.0254840000
    3      F      -1.1282540000     3.2987140000     0.7701410000
    4      F      -1.1120790000     1.0705350000     0.4408920000
    5      F      -1.1411650000     2.5436510000    -1.1838870000
 ----------------------------------------------------------------

    7    -435.5103332328      3.61E-09 Convergence criterion met
 Total energy in the final basis set = -435.5103332328
  Term symbol:  2 (-) A                                     R^2 =  1.09146e-13
  Excitation energy:                                             694.344147 eV
  Term symbol:  3 (-) A                                     R^2 =  9.19291e-14
  Excitation energy:                                             694.574375 eV
  Term symbol:  4 (-) A                                     R^2 =  2.84288e-13
  Excitation energy:                                             698.782598 eV
  Term symbol:  5 (-) A                                     R^2 =  3.49055e-13
  Excitation energy:                                             699.522799 eV
  Term symbol:  6 (-) A                                     R^2 =  2.13703e-13
  Excitation energy:                                             701.924377 eV
  Term symbol:  7 (-) A                                     R^2 =  1.87361e-13
  Excitation energy:                                             702.162303 eV
  Term symbol:  8 (-) A                                     R^2 =  1.79518e-13
  Excitation energy:                                             704.401630 eV
  Term symbol:  9 (-) A                                     R^2 =  1.76405e-13
  Excitation energy:                                             704.782890 eV
  Term symbol:  10 (-) A                                    R^2 =  2.44652e-13
  Excitation energy:                                             706.325112 eV
  Excited state 10 (A)                                             [converged]
  Term symbol:  11 (-) A                                    R^2 =  3.28999e-13
  Excitation energy:                                             706.860346 eV
  Excited state 11 (A)                                             [converged]
  Term symbol:  12 (-) A                                    R^2 =  2.72491e-13
  Excitation energy:                                             707.610979 eV
  Excited state 12 (A)                                             [converged]
  Term symbol:  13 (-) A                                    R^2 =  3.25462e-13
  Excitation energy:                                             707.693313 eV
  Excited state 13 (A)                                             [converged]
  Term symbol:  14 (-) A                                    R^2 =  1.37347e-12
  Excitation energy:                                             708.845474 eV
  Excited state 14 (A)                                             [converged]
  Term symbol:  15 (-) A                                    R^2 =  8.70407e-13
  Excitation energy:                                             709.079185 eV
  Excited state 15 (A)                                             [converged]
  Term symbol:  16 (-) A                                    R^2 =  8.01118e-13
  Excitation energy:                                             711.429366 eV
  Excited state 16 (A)                                             [converged]
  Term symbol:  17 (-) A                                    R^2 =  5.12666e-13
  Excitation energy:                                             711.535066 eV
  Excited state 17 (A)                                             [converged]
  Term symbol:  18 (-) A                                    R^2 =  3.00507e-10
  Excitation energy:                                             720.207942 eV
  Excited state 18 (A)                                             [converged]
  Term symbol:  19 (-) A                                    R^2 =  2.23844e-08
  Excitation energy:                                             721.188658 eV
  Excited state 19 (A)                                             [converged]
  Term symbol:  20 (-) A                                    R^2 =  2.55187e-07
  Excitation energy:                                             722.533265 eV
  Excited state 20 (A)                                         [not converged]
  Term symbol:  21 (-) A                                    R^2 =  1.14076e-04
  Excitation energy:                                             723.593328 eV

                    Orbital Energies (a.u.)
 --------------------------------------------------------------

 Alpha MOs
 -- Occupied --
-26.478 -26.444 -26.398 -26.169 -11.644  -1.910  -1.808  -1.723
 -1.433  -1.056  -0.975  -0.954  -0.918  -0.804  -0.791  -0.781
 -0.745  -0.720  -0.519  -0.517  -0.508

 Beta MOs
 -- Occupied --
-26.478 -26.444 -26.398 -26.169 -11.644  -1.910  -1.808  -1.723
 -1.433  -1.056  -0.975  -0.954  -0.918  -0.804  -0.791  -0.781
 -0.745  -0.720  -0.519  -0.517  -0.508

          Ground-State Mulliken Net Atomic Charges

     Atom                 Charge (a.u.)    Spin (a.u.)
  --------------------------------------------------------
      1 C                     1.185927       0.000000
      2 F                    -0.273370       0.000000
      3 F                    -0.105323       0.000000
      4 F                    -0.625644       0.000000
      5 F                    -0.181590       0.000000
  --------------------------------------------------------
  Sum of atomic charges =     0.000000

                    Cartesian Multipole Moments
 -----------------------------------------------------------------
    Charge (ESU x 10^10)
                 0.0000
    Dipole Moment (Debye)
         X       0.5323      Y       4.3229      Z      -1.1068
       Tot       4.4939
    Quadrupole Moments (Debye-Ang)
        XX     -25.2310     XY      -2.9529     YY      -6.1190
        XZ       1.0563     YZ      -1.3226     ZZ     -23.8802

 Total job time:  225.75s(wall), 1221.65s(cpu)
        *  Thank you very much for using Q-Chem.  Have a nice day.  *
