 Q-Chem 4.3, Q-Chem, Inc., Pleasanton, CA (2015)
 Q-Chem 4.3.0 for Intel X86 Linux

User input:
--------------------------------------------------------------
$comment
XAS calculation for the 2b valence excited for water using cvs-adc(2)-x + 6-311+G* basis set
job 1 - determination of HF orbitals
$end

$molecule
0 1
6  -0.483301  2.89656  -0.240555
9  0.691822  2.634528  -0.120437
9  -1.029406  3.520209  0.666953
9  -1.587107  0.032993  0.926177
9  -1.006217  2.866245  -1.319998
$end

$rem
jobtype      sp
sym_ignore true
exchange     hf
basis        6-31G*
unrestricted true
$end

--------------------------------------------------------------

   12    -435.3360808834      2.38E-06 Convergence criterion met
 Total energy in the final basis set = -435.3360808834
 Total job time:  3.23s(wall), 14.81s(cpu)
        *  Thank you very much for using Q-Chem.  Have a nice day.  *
 Q-Chem 4.3, Q-Chem, Inc., Pleasanton, CA (2015)
 Q-Chem 4.3.0 for Intel X86 Linux

User input:
--------------------------------------------------------------

$comment
job3 - cvs-adc(2) calculation
$end

$molecule
read
$end

$rem
mem_total 3000
mem_static 1500
sym_ignore true
scf_guess read
method cvs-adc(2)
basis 6-31G*
ee_singlets 20
cc_rest_occ 5                  !only excitations from the lowest N orbitals
unrestricted  true
max_scf_cycles 200
$end
--------------------------------------------------------------

             Standard Nuclear Orientation (Angstroms)
    I     Atom           X                Y                Z
 ----------------------------------------------------------------
    1      C      -0.4833010000     2.8965600000    -0.2405550000
    2      F       0.6918220000     2.6345280000    -0.1204370000
    3      F      -1.0294060000     3.5202090000     0.6669530000
    4      F      -1.5871070000     0.0329930000     0.9261770000
    5      F      -1.0062170000     2.8662450000    -1.3199980000
 ----------------------------------------------------------------

    8    -435.3360809501      5.48E-09 Convergence criterion met
 Total energy in the final basis set = -435.3360809501
  Term symbol:  2 (-) A                                     R^2 =  2.81638e-13
  Excitation energy:                                             294.678542 eV
  Term symbol:  3 (-) A                                     R^2 =  1.38752e-13
  Excitation energy:                                             296.609804 eV
  Term symbol:  4 (-) A                                     R^2 =  2.30687e-13
  Excitation energy:                                             303.349776 eV
  Term symbol:  5 (-) A                                     R^2 =  3.43803e-13
  Excitation energy:                                             304.892559 eV
  Term symbol:  6 (-) A                                     R^2 =  2.89503e-13
  Excitation energy:                                             305.328525 eV
  Term symbol:  7 (-) A                                     R^2 =  1.30627e-13
  Excitation energy:                                             306.082309 eV
  Term symbol:  8 (-) A                                     R^2 =  1.81644e-13
  Excitation energy:                                             307.497711 eV
  Term symbol:  9 (-) A                                     R^2 =  1.58584e-13
  Excitation energy:                                             308.262504 eV
  Term symbol:  10 (-) A                                    R^2 =  3.56511e-13
  Excitation energy:                                             312.995030 eV
  Excited state 10 (A)                                             [converged]
  Term symbol:  11 (-) A                                    R^2 =  3.43693e-13
  Excitation energy:                                             314.144889 eV
  Excited state 11 (A)                                             [converged]
  Term symbol:  12 (-) A                                    R^2 =  1.87356e-13
  Excitation energy:                                             314.624009 eV
  Excited state 12 (A)                                             [converged]
  Term symbol:  13 (-) A                                    R^2 =  6.39350e-13
  Excitation energy:                                             314.779784 eV
  Excited state 13 (A)                                             [converged]
  Term symbol:  14 (-) A                                    R^2 =  5.20758e-13
  Excitation energy:                                             314.928614 eV
  Excited state 14 (A)                                             [converged]
  Term symbol:  15 (-) A                                    R^2 =  5.43822e-13
  Excitation energy:                                             315.071408 eV
  Excited state 15 (A)                                             [converged]
  Term symbol:  16 (-) A                                    R^2 =  4.17769e-13
  Excitation energy:                                             315.221187 eV
  Excited state 16 (A)                                             [converged]
  Term symbol:  17 (-) A                                    R^2 =  7.17409e-13
  Excitation energy:                                             316.113712 eV
  Excited state 17 (A)                                             [converged]
  Term symbol:  18 (-) A                                    R^2 =  5.86546e-10
  Excitation energy:                                             326.919893 eV
  Excited state 18 (A)                                             [converged]
  Term symbol:  19 (-) A                                    R^2 =  1.72378e-12
  Excitation energy:                                             326.936135 eV
  Excited state 19 (A)                                             [converged]
  Term symbol:  20 (-) A                                    R^2 =  5.91717e-08
  Excitation energy:                                             331.887274 eV
  Excited state 20 (A)                                         [not converged]
  Term symbol:  21 (-) A                                    R^2 =  4.13164e-03
  Excitation energy:                                             332.060257 eV

                    Orbital Energies (a.u.)
 --------------------------------------------------------------

 Alpha MOs
 -- Occupied --
-26.583 -26.576 -26.564 -25.943 -11.776  -2.008  -1.908  -1.887
 -1.194  -1.160  -1.080  -1.075  -1.022  -0.909  -0.907  -0.885
 -0.873  -0.853  -0.306  -0.306  -0.281

 Beta MOs
 -- Occupied --
-26.583 -26.576 -26.564 -25.943 -11.776  -2.008  -1.908  -1.887
 -1.194  -1.160  -1.080  -1.075  -1.022  -0.909  -0.907  -0.885
 -0.873  -0.853  -0.306  -0.306  -0.281

          Ground-State Mulliken Net Atomic Charges

     Atom                 Charge (a.u.)    Spin (a.u.)
  --------------------------------------------------------
      1 C                     1.163186       0.000000
      2 F                    -0.097069       0.000000
      3 F                    -0.118457       0.000000
      4 F                    -0.862015       0.000000
      5 F                    -0.085645       0.000000
  --------------------------------------------------------
  Sum of atomic charges =     0.000000

                    Cartesian Multipole Moments
 -----------------------------------------------------------------
    Charge (ESU x 10^10)
                 0.0000
    Dipole Moment (Debye)
         X       4.4971      Y      11.5634      Z      -4.8537
       Tot      13.3227
    Quadrupole Moments (Debye-Ang)
        XX     -31.8140     XY      -5.2250     YY      11.4955
        XZ       6.4990     YZ      -3.4496     ZZ     -25.7181

 Total job time:  1933.00s(wall), 3113.66s(cpu)
        *  Thank you very much for using Q-Chem.  Have a nice day.  *
