 Q-Chem 4.3, Q-Chem, Inc., Pleasanton, CA (2015)
 Q-Chem 4.3.0 for Intel X86 Linux

User input:
--------------------------------------------------------------
$comment
XAS calculation for the 2b valence excited for water using cvs-adc(2)-x + 6-311+G* basis set
job 1 - determination of HF orbitals
$end

$molecule
0 1
6  -0.269067  2.782247  -0.328391
9  0.834865  2.948798  -0.272169
9  -1.027655  3.188001  0.759617
9  -2.015028  0.211382  1.133377
9  -0.898776  2.861181  -1.411986
$end

$rem
jobtype      sp
sym_ignore true
exchange     hf
basis        6-31G*
unrestricted true
$end

--------------------------------------------------------------

   13    -435.2671576723      4.25E-06 Convergence criterion met
 Total energy in the final basis set = -435.2671576723
 Total job time:  3.36s(wall), 16.04s(cpu)
        *  Thank you very much for using Q-Chem.  Have a nice day.  *
 Q-Chem 4.3, Q-Chem, Inc., Pleasanton, CA (2015)
 Q-Chem 4.3.0 for Intel X86 Linux

User input:
--------------------------------------------------------------

$comment
job3 - cvs-adc(2) calculation
$end

$molecule
read
$end

$rem
mem_total 3000
mem_static 1500
sym_ignore true
scf_guess read
method cvs-adc(2)
basis 6-31G*
ee_singlets 20
cc_rest_occ 5                  !only excitations from the lowest N orbitals
unrestricted  true
max_scf_cycles 200
$end
--------------------------------------------------------------

             Standard Nuclear Orientation (Angstroms)
    I     Atom           X                Y                Z
 ----------------------------------------------------------------
    1      C      -0.2690670000     2.7822470000    -0.3283910000
    2      F       0.8348650000     2.9487980000    -0.2721690000
    3      F      -1.0276550000     3.1880010000     0.7596170000
    4      F      -2.0150280000     0.2113820000     1.1333770000
    5      F      -0.8987760000     2.8611810000    -1.4119860000
 ----------------------------------------------------------------

   11    -435.2671580407      2.73E-09 Convergence criterion met
 Total energy in the final basis set = -435.2671580407
  Term symbol:  2 (-) A                                     R^2 =  9.37397e-13
  Excitation energy:                                             294.361872 eV
  Term symbol:  3 (-) A                                     R^2 =  2.10849e-13
  Excitation energy:                                             296.184324 eV
  Term symbol:  4 (-) A                                     R^2 =  1.03831e-13
  Excitation energy:                                             300.816619 eV
  Term symbol:  5 (-) A                                     R^2 =  1.77995e-13
  Excitation energy:                                             302.882705 eV
  Term symbol:  6 (-) A                                     R^2 =  6.65289e-14
  Excitation energy:                                             303.331854 eV
  Term symbol:  7 (-) A                                     R^2 =  3.50321e-14
  Excitation energy:                                             305.211881 eV
  Term symbol:  8 (-) A                                     R^2 =  3.22352e-14
  Excitation energy:                                             307.385613 eV
  Term symbol:  9 (-) A                                     R^2 =  7.95115e-14
  Excitation energy:                                             308.778953 eV
  Term symbol:  10 (-) A                                    R^2 =  1.49678e-13
  Excitation energy:                                             313.060055 eV
  Excited state 10 (A)                                             [converged]
  Term symbol:  11 (-) A                                    R^2 =  2.45536e-13
  Excitation energy:                                             313.381086 eV
  Excited state 11 (A)                                             [converged]
  Term symbol:  12 (-) A                                    R^2 =  5.02781e-13
  Excitation energy:                                             313.726552 eV
  Excited state 12 (A)                                             [converged]
  Term symbol:  13 (-) A                                    R^2 =  1.25701e-13
  Excitation energy:                                             314.134277 eV
  Excited state 13 (A)                                             [converged]
  Term symbol:  14 (-) A                                    R^2 =  2.83116e-13
  Excitation energy:                                             314.318027 eV
  Excited state 14 (A)                                             [converged]
  Term symbol:  15 (-) A                                    R^2 =  7.84937e-13
  Excitation energy:                                             315.029490 eV
  Excited state 15 (A)                                             [converged]
  Term symbol:  16 (-) A                                    R^2 =  8.39656e-13
  Excitation energy:                                             315.609142 eV
  Excited state 16 (A)                                             [converged]
  Term symbol:  17 (-) A                                    R^2 =  9.35111e-13
  Excitation energy:                                             315.944544 eV
  Excited state 17 (A)                                             [converged]
  Term symbol:  18 (-) A                                    R^2 =  9.71953e-09
  Excitation energy:                                             323.937011 eV
  Excited state 18 (A)                                             [converged]
  Term symbol:  19 (-) A                                    R^2 =  2.90272e-11
  Excitation energy:                                             323.979972 eV
  Excited state 19 (A)                                             [converged]
  Term symbol:  20 (-) A                                    R^2 =  7.00320e-07
  Excitation energy:                                             329.883646 eV
  Excited state 20 (A)                                             [converged]
  Term symbol:  21 (-) A                                    R^2 =  3.18156e-07
  Excitation energy:                                             330.090643 eV

                    Orbital Energies (a.u.)
 --------------------------------------------------------------

 Alpha MOs
 -- Occupied --
-26.629 -26.557 -26.492 -25.968 -11.767  -2.056  -1.888  -1.765
 -1.212  -1.179  -1.077  -1.048  -1.031  -0.894  -0.880  -0.847
 -0.802  -0.798  -0.326  -0.326  -0.280

 Beta MOs
 -- Occupied --
-26.629 -26.557 -26.492 -25.968 -11.767  -2.056  -1.888  -1.765
 -1.212  -1.179  -1.077  -1.048  -1.031  -0.894  -0.880  -0.847
 -0.802  -0.798  -0.326  -0.326  -0.280

          Ground-State Mulliken Net Atomic Charges

     Atom                 Charge (a.u.)    Spin (a.u.)
  --------------------------------------------------------
      1 C                     1.139295       0.000000
      2 F                     0.031015       0.000000
      3 F                    -0.228374       0.000000
      4 F                    -0.796043       0.000000
      5 F                    -0.145893       0.000000
  --------------------------------------------------------
  Sum of atomic charges =     0.000000

                    Cartesian Multipole Moments
 -----------------------------------------------------------------
    Charge (ESU x 10^10)
                 0.0000
    Dipole Moment (Debye)
         X       7.4654      Y       9.4339      Z      -5.8333
       Tot      13.3700
    Quadrupole Moments (Debye-Ang)
        XX     -37.8990     XY       1.5424     YY       5.2927
        XZ       8.8919     YZ      -5.4368     ZZ     -27.4345

 Total job time:  1806.16s(wall), 2988.90s(cpu)
        *  Thank you very much for using Q-Chem.  Have a nice day.  *
