 Q-Chem 4.3, Q-Chem, Inc., Pleasanton, CA (2015)
 Q-Chem 4.3.0 for Intel X86 Linux

User input:
--------------------------------------------------------------
$comment
XAS calculation for the 2b valence excited for water using cvs-adc(2)-x + 6-311+G* basis set
job 1 - determination of HF orbitals
$end

$molecule
0 1
6  -0.39762  3.134098  -0.356136
9  0.691352  2.63606  -0.122832
9  -1.027816  3.512038  0.666028
9  -1.64947  -0.108505  0.990444
9  -0.997199  2.864871  -1.306785
$end

$rem
jobtype      sp
sym_ignore true
exchange     hf
basis        6-31G*
unrestricted true
$end

--------------------------------------------------------------

   16    -435.2843480284      5.67E-07 Convergence criterion met
 Total energy in the final basis set = -435.2843480284

                    Orbital Energies (a.u.)
 --------------------------------------------------------------

 Alpha MOs
 -- Occupied --
-26.630 -26.596 -26.575 -25.866 -11.801  -2.052  -1.942  -1.886
 -1.189  -1.131  -1.108  -1.098  -1.055  -0.933  -0.923  -0.912
 -0.881  -0.868  -0.242  -0.242  -0.233

 Beta MOs
 -- Occupied --
-26.630 -26.596 -26.575 -25.866 -11.801  -2.052  -1.942  -1.886
 -1.189  -1.131  -1.108  -1.098  -1.055  -0.933  -0.923  -0.912
 -0.881  -0.868  -0.242  -0.242  -0.233

          Ground-State Mulliken Net Atomic Charges

     Atom                 Charge (a.u.)    Spin (a.u.)
  --------------------------------------------------------
      1 C                     1.183930       0.000000
      2 F                    -0.090319       0.000000
      3 F                    -0.132573       0.000000
      4 F                    -0.955237       0.000000
      5 F                    -0.005801       0.000000
  --------------------------------------------------------
  Sum of atomic charges =     0.000000

                    Cartesian Multipole Moments
 -----------------------------------------------------------------
    Charge (ESU x 10^10)
                 0.0000
    Dipole Moment (Debye)
         X       5.6308      Y      14.6357      Z      -6.5115
       Tot      16.9797
    Quadrupole Moments (Debye-Ang)
        XX     -33.8606     XY      -6.2978     YY      22.2344
        XZ       8.3635     YZ      -6.0599     ZZ     -25.7762

 Total job time:  3.90s(wall), 19.61s(cpu)
        *  Thank you very much for using Q-Chem.  Have a nice day.  *
 Q-Chem 4.3, Q-Chem, Inc., Pleasanton, CA (2015)
 Q-Chem 4.3.0 for Intel X86 Linux

User input:
--------------------------------------------------------------

$comment
job3 - cvs-adc(2) calculation
$end

$molecule
read
$end

$rem
mem_total 3000
mem_static 1500
sym_ignore true
scf_guess read
method cvs-adc(2)
basis 6-31G*
ee_singlets 20
cc_rest_occ 5                  !only excitations from the lowest N orbitals
unrestricted  true
max_scf_cycles 200
$end
--------------------------------------------------------------

             Standard Nuclear Orientation (Angstroms)
    I     Atom           X                Y                Z
 ----------------------------------------------------------------
    1      C      -0.3976200000     3.1340980000    -0.3561360000
    2      F       0.6913520000     2.6360600000    -0.1228320000
    3      F      -1.0278160000     3.5120380000     0.6660280000
    4      F      -1.6494700000    -0.1085050000     0.9904440000
    5      F      -0.9971990000     2.8648710000    -1.3067850000
 ----------------------------------------------------------------

    9    -435.2843481971      2.98E-09 Convergence criterion met
 Total energy in the final basis set = -435.2843481971
