 Q-Chem 4.3, Q-Chem, Inc., Pleasanton, CA (2015)
 Q-Chem 4.3.0 for Intel X86 Linux

User input:
--------------------------------------------------------------
$comment
XAS calculation for the 2b valence excited for water using cvs-adc(2)-x + 6-311+G* basis set
job 1 - determination of HF orbitals
$end

$molecule
0 1
6  -0.609614  2.581736  -0.097759
9  0.588585  2.331851  0.003259
9  -1.139214  3.259071  0.785796
9  -1.166516  1.115049  0.464115
9  -1.135289  2.543876  -1.200448
$end

$rem
jobtype      sp
sym_ignore true
exchange     hf
basis        6-31G*
unrestricted true
$end

--------------------------------------------------------------

    8    -435.5522503184      8.44E-06 Convergence criterion met
 Total energy in the final basis set = -435.5522503184
 Total job time:  2.31s(wall), 10.54s(cpu)
        *  Thank you very much for using Q-Chem.  Have a nice day.  *
 Q-Chem 4.3, Q-Chem, Inc., Pleasanton, CA (2015)
 Q-Chem 4.3.0 for Intel X86 Linux

User input:
--------------------------------------------------------------

$comment
job3 - cvs-adc(2) calculation
$end

$molecule
read
$end

$rem
mem_total 3000
mem_static 1500
sym_ignore true
scf_guess read
method cvs-adc(2)
basis 6-31G*
ee_singlets 20
cc_rest_occ 5                  !only excitations from the lowest N orbitals
unrestricted  true
max_scf_cycles 200
$end
--------------------------------------------------------------

             Standard Nuclear Orientation (Angstroms)
    I     Atom           X                Y                Z
 ----------------------------------------------------------------
    1      C      -0.6096140000     2.5817360000    -0.0977590000
    2      F       0.5885850000     2.3318510000     0.0032590000
    3      F      -1.1392140000     3.2590710000     0.7857960000
    4      F      -1.1665160000     1.1150490000     0.4641150000
    5      F      -1.1352890000     2.5438760000    -1.2004480000
 ----------------------------------------------------------------

    6    -435.5522504855      6.11E-09 Convergence criterion met
 Total energy in the final basis set = -435.5522504855
  Term symbol:  2 (-) A                                     R^2 =  1.04555e-13
  Excitation energy:                                             296.753340 eV
  Term symbol:  3 (-) A                                     R^2 =  1.50430e-13
  Excitation energy:                                             298.735089 eV
  Term symbol:  4 (-) A                                     R^2 =  3.14856e-13
  Excitation energy:                                             303.870097 eV
  Term symbol:  5 (-) A                                     R^2 =  4.40412e-13
  Excitation energy:                                             304.697086 eV
  Term symbol:  6 (-) A                                     R^2 =  1.82634e-13
  Excitation energy:                                             304.976213 eV
  Term symbol:  7 (-) A                                     R^2 =  1.79053e-13
  Excitation energy:                                             305.907999 eV
  Term symbol:  8 (-) A                                     R^2 =  2.14245e-13
  Excitation energy:                                             306.909722 eV
  Term symbol:  9 (-) A                                     R^2 =  1.37548e-13
  Excitation energy:                                             307.194572 eV
  Term symbol:  10 (-) A                                    R^2 =  1.11763e-13
  Excitation energy:                                             311.751217 eV
  Excited state 10 (A)                                             [converged]
  Term symbol:  11 (-) A                                    R^2 =  2.72345e-13
  Excitation energy:                                             313.126986 eV
  Excited state 11 (A)                                             [converged]
  Term symbol:  12 (-) A                                    R^2 =  4.12887e-13
  Excitation energy:                                             314.133809 eV
  Excited state 12 (A)                                             [converged]
  Term symbol:  13 (-) A                                    R^2 =  2.88014e-13
  Excitation energy:                                             314.199945 eV
  Excited state 13 (A)                                             [converged]
  Term symbol:  14 (-) A                                    R^2 =  2.15236e-13
  Excitation energy:                                             314.514676 eV
  Excited state 14 (A)                                             [converged]
  Term symbol:  15 (-) A                                    R^2 =  2.96426e-13
  Excitation energy:                                             314.583718 eV
  Excited state 15 (A)                                             [converged]
  Term symbol:  16 (-) A                                    R^2 =  7.13573e-13
  Excitation energy:                                             316.829235 eV
  Excited state 16 (A)                                             [converged]
  Term symbol:  17 (-) A                                    R^2 =  1.05423e-12
  Excitation energy:                                             317.246291 eV
  Excited state 17 (A)                                         [not converged]
  Term symbol:  18 (-) A                                    R^2 =  6.60168e-06
  Excitation energy:                                             331.080259 eV
  Excited state 18 (A)                                         [not converged]
  Term symbol:  19 (-) A                                    R^2 =  4.54348e-06
  Excitation energy:                                             331.192696 eV
  Excited state 19 (A)                                         [not converged]
  Term symbol:  20 (-) A                                    R^2 =  3.46485e-05
  Excitation energy:                                             331.240996 eV
  Excited state 20 (A)                                         [not converged]
  Term symbol:  21 (-) A                                    R^2 =  2.22900e-05
  Excitation energy:                                             331.329750 eV

                    Orbital Energies (a.u.)
 --------------------------------------------------------------

 Alpha MOs
 -- Occupied --
-26.434 -26.430 -26.426 -26.204 -11.635  -1.868  -1.765  -1.758
 -1.468  -1.036  -0.948  -0.946  -0.895  -0.787  -0.786  -0.764
 -0.761  -0.727  -0.548  -0.548  -0.544

 Beta MOs
 -- Occupied --
-26.434 -26.430 -26.426 -26.204 -11.635  -1.868  -1.765  -1.758
 -1.468  -1.036  -0.948  -0.946  -0.895  -0.787  -0.786  -0.764
 -0.761  -0.727  -0.548  -0.548  -0.544

          Ground-State Mulliken Net Atomic Charges

     Atom                 Charge (a.u.)    Spin (a.u.)
  --------------------------------------------------------
      1 C                     1.235125       0.000000
      2 F                    -0.216569       0.000000
      3 F                    -0.222399       0.000000
      4 F                    -0.587075       0.000000
      5 F                    -0.209082       0.000000
  --------------------------------------------------------
  Sum of atomic charges =     0.000000

                    Cartesian Multipole Moments
 -----------------------------------------------------------------
    Charge (ESU x 10^10)
                 0.0000
    Dipole Moment (Debye)
         X       1.2173      Y       3.1839      Z      -1.2912
       Tot       3.6451
    Quadrupole Moments (Debye-Ang)
        XX     -25.9769     XY      -0.2805     YY     -11.4232
        XZ       1.2705     YZ      -2.1486     ZZ     -24.2406

 Total job time:  2125.03s(wall), 3519.33s(cpu)
        *  Thank you very much for using Q-Chem.  Have a nice day.  *
