 Q-Chem 4.3, Q-Chem, Inc., Pleasanton, CA (2015)
 Q-Chem 4.3.0 for Intel X86 Linux

User input:
--------------------------------------------------------------
$comment
XAS calculation for the 2b valence excited for water using cvs-adc(2)-x + 6-311+G* basis set
job 1 - determination of HF orbitals
$end

$molecule
0 1
6  -0.41388  2.772054  -0.261435
9  0.800807  2.756282  -0.206347
9  -1.028481  3.320486  0.716953
9  -1.800754  0.208536  1.014649
9  -0.932325  2.832579  -1.361773
$end

$rem
jobtype      sp
sym_ignore true
exchange     hf
basis        6-31G*
unrestricted true
$end

--------------------------------------------------------------

   12    -435.3335796640      6.36E-06 Convergence criterion met
 Total energy in the final basis set = -435.3335796640
 Total job time:  3.28s(wall), 13.18s(cpu)
        *  Thank you very much for using Q-Chem.  Have a nice day.  *
 Q-Chem 4.3, Q-Chem, Inc., Pleasanton, CA (2015)
 Q-Chem 4.3.0 for Intel X86 Linux

User input:
--------------------------------------------------------------

$comment
job3 - cvs-adc(2) calculation
$end

$molecule
read
$end

$rem
mem_total 3000
mem_static 1500
sym_ignore true
scf_guess read
method cvs-adc(2)
basis 6-31G*
ee_singlets 20
cc_rest_occ 5                  !only excitations from the lowest N orbitals
unrestricted  true
max_scf_cycles 200
$end
--------------------------------------------------------------

             Standard Nuclear Orientation (Angstroms)
    I     Atom           X                Y                Z
 ----------------------------------------------------------------
    1      C      -0.4138800000     2.7720540000    -0.2614350000
    2      F       0.8008070000     2.7562820000    -0.2063470000
    3      F      -1.0284810000     3.3204860000     0.7169530000
    4      F      -1.8007540000     0.2085360000     1.0146490000
    5      F      -0.9323250000     2.8325790000    -1.3617730000
 ----------------------------------------------------------------

    9    -435.3335797575      7.76E-09 Convergence criterion met
 Total energy in the final basis set = -435.3335797575
  Term symbol:  2 (-) A                                     R^2 =  2.09403e-06
  Excitation energy:                                             294.362901 eV
  Term symbol:  3 (-) A                                     R^2 =  2.61832e-06
  Excitation energy:                                             296.249778 eV
  Term symbol:  4 (-) A                                     R^2 =  1.89610e-06
  Excitation energy:                                             302.818484 eV
  Term symbol:  5 (-) A                                     R^2 =  2.90455e-06
  Excitation energy:                                             304.433485 eV
  Term symbol:  6 (-) A                                     R^2 =  6.70847e-07
  Excitation energy:                                             304.670691 eV
  Term symbol:  7 (-) A                                     R^2 =  4.07488e-06
  Excitation energy:                                             305.109468 eV
  Term symbol:  8 (-) A                                     R^2 =  2.10220e-06
  Excitation energy:                                             306.396567 eV
  Term symbol:  9 (-) A                                     R^2 =  1.30331e-06
  Excitation energy:                                             307.206677 eV
  Term symbol:  10 (-) A                                    R^2 =  4.28762e-06
  Excitation energy:                                             313.050078 eV
  Excited state 10 (A)                                         [not converged]
  Term symbol:  11 (-) A                                    R^2 =  9.34776e-06
  Excitation energy:                                             313.887705 eV
  Excited state 11 (A)                                         [not converged]
  Term symbol:  12 (-) A                                    R^2 =  2.49021e-06
  Excitation energy:                                             314.001776 eV
  Excited state 12 (A)                                         [not converged]
  Term symbol:  13 (-) A                                    R^2 =  3.79911e-06
  Excitation energy:                                             314.448389 eV
  Excited state 13 (A)                                         [not converged]
  Term symbol:  14 (-) A                                    R^2 =  5.10399e-06
  Excitation energy:                                             314.643665 eV
  Excited state 14 (A)                                         [not converged]
  Term symbol:  15 (-) A                                    R^2 =  1.60151e-06
  Excitation energy:                                             314.900385 eV
  Excited state 15 (A)                                         [not converged]
  Term symbol:  16 (-) A                                    R^2 =  2.06900e-06
  Excitation energy:                                             314.960982 eV
  Excited state 16 (A)                                             [converged]
  Term symbol:  17 (-) A                                    R^2 =  9.79640e-07
  Excitation energy:                                             315.840640 eV
  Excited state 17 (A)                                         [not converged]
  Term symbol:  18 (-) A                                    R^2 =  4.17647e-06
  Excitation energy:                                             325.670214 eV
  Excited state 18 (A)                                             [converged]
  Term symbol:  19 (-) A                                    R^2 =  8.58053e-07
  Excitation energy:                                             325.707994 eV
  Excited state 19 (A)                                         [not converged]
  Term symbol:  20 (-) A                                    R^2 =  2.95988e-01
  Excitation energy:                                             327.896570 eV
  Excited state 20 (A)                                         [not converged]
  Term symbol:  21 (-) A                                    R^2 =  4.66098e-01
  Excitation energy:                                             328.521076 eV

                    Orbital Energies (a.u.)
 --------------------------------------------------------------

 Alpha MOs
 -- Occupied --
-26.567 -26.563 -26.527 -25.993 -11.760  -1.978  -1.884  -1.835
 -1.234  -1.141  -1.053  -1.041  -0.993  -0.887  -0.881  -0.867
 -0.838  -0.827  -0.349  -0.349  -0.304

 Beta MOs
 -- Occupied --
-26.567 -26.563 -26.527 -25.993 -11.760  -1.978  -1.884  -1.835
 -1.234  -1.141  -1.053  -1.041  -0.993  -0.887  -0.881  -0.867
 -0.838  -0.827  -0.349  -0.349  -0.304

          Ground-State Mulliken Net Atomic Charges

     Atom                 Charge (a.u.)    Spin (a.u.)
  --------------------------------------------------------
      1 C                     1.165258       0.000000
      2 F                    -0.114517       0.000000
      3 F                    -0.162045       0.000000
      4 F                    -0.778623       0.000000
      5 F                    -0.110073       0.000000
  --------------------------------------------------------
  Sum of atomic charges =     0.000000

                    Cartesian Multipole Moments
 -----------------------------------------------------------------
    Charge (ESU x 10^10)
                 0.0000
    Dipole Moment (Debye)
         X       5.2098      Y       9.2635      Z      -4.8677
       Tot      11.6897
    Quadrupole Moments (Debye-Ang)
        XX     -34.1759     XY      -2.2641     YY       4.8903
        XZ       7.1607     YZ      -4.1362     ZZ     -26.2862

 Total job time:  2254.86s(wall), 3698.28s(cpu)
        *  Thank you very much for using Q-Chem.  Have a nice day.  *
