 Q-Chem 4.3, Q-Chem, Inc., Pleasanton, CA (2015)
 Q-Chem 4.3.0 for Intel X86 Linux

User input:
--------------------------------------------------------------
$comment
XAS calculation for the 2b valence excited for water using cvs-adc(2)-x + 6-311+G* basis set
job 1 - determination of HF orbitals
$end

$molecule
0 1
6  -0.510381  2.993141  -0.219014
9  0.493782  2.28459  0.051355
9  -1.117228  3.47087  0.741558
9  -1.142771  0.594732  0.556938
9  -1.155623  2.643754  -1.207444
$end

$rem
jobtype      sp
sym_ignore true
exchange     hf
basis        6-31G*
unrestricted true
$end

--------------------------------------------------------------

   12    -435.3524798330      4.90E-06 Convergence criterion met
 Total energy in the final basis set = -435.3524798330

                    Orbital Energies (a.u.)
 --------------------------------------------------------------

 Alpha MOs
 -- Occupied --
-26.549 -26.543 -26.520 -25.951 -11.751  -1.949  -1.856  -1.824
 -1.213  -1.119  -1.030  -1.020  -0.967  -0.863  -0.859  -0.841
 -0.815  -0.809  -0.321  -0.319  -0.317

 Beta MOs
 -- Occupied --
-26.549 -26.543 -26.520 -25.951 -11.751  -1.949  -1.856  -1.824
 -1.213  -1.119  -1.030  -1.020  -0.967  -0.863  -0.859  -0.841
 -0.815  -0.809  -0.321  -0.319  -0.317

          Ground-State Mulliken Net Atomic Charges

     Atom                 Charge (a.u.)    Spin (a.u.)
  --------------------------------------------------------
      1 C                     1.191924       0.000000
      2 F                    -0.097342       0.000000
      3 F                    -0.110425       0.000000
      4 F                    -0.886614       0.000000
      5 F                    -0.097542       0.000000
  --------------------------------------------------------
  Sum of atomic charges =     0.000000

                    Cartesian Multipole Moments
 -----------------------------------------------------------------
    Charge (ESU x 10^10)
                 0.0000
    Dipole Moment (Debye)
         X       2.7155      Y      10.1767      Z      -3.3465
       Tot      11.0517
    Quadrupole Moments (Debye-Ang)
        XX     -27.0922     XY      -3.2141     YY      14.8271
        XZ       3.1000     YZ      -4.6931     ZZ     -23.6516

 Total job time:  3.23s(wall), 13.61s(cpu)
        *  Thank you very much for using Q-Chem.  Have a nice day.  *
 Q-Chem 4.3, Q-Chem, Inc., Pleasanton, CA (2015)
 Q-Chem 4.3.0 for Intel X86 Linux

User input:
--------------------------------------------------------------

$comment
job3 - cvs-adc(2) calculation
$end

$molecule
read
$end

$rem
mem_total 3000
mem_static 1500
sym_ignore true
scf_guess read
method cvs-adc(2)
basis 6-31G*
ee_singlets 20
cc_rest_occ 5                  !only excitations from the lowest N orbitals
unrestricted  true
max_scf_cycles 200
$end
--------------------------------------------------------------

             Standard Nuclear Orientation (Angstroms)
    I     Atom           X                Y                Z
 ----------------------------------------------------------------
    1      C      -0.5103810000     2.9931410000    -0.2190140000
    2      F       0.4937820000     2.2845900000     0.0513550000
    3      F      -1.1172280000     3.4708700000     0.7415580000
    4      F      -1.1427710000     0.5947320000     0.5569380000
    5      F      -1.1556230000     2.6437540000    -1.2074440000
 ----------------------------------------------------------------

    8    -435.3524801051      8.76E-09 Convergence criterion met
 Total energy in the final basis set = -435.3524801051
