 Q-Chem 4.3, Q-Chem, Inc., Pleasanton, CA (2015)
 Q-Chem 4.3.0 for Intel X86 Linux

User input:
--------------------------------------------------------------
$comment
XAS calculation for the 2b valence excited for water using cvs-adc(2)-x + 6-311+G* basis set
job 1 - determination of HF orbitals
$end

$molecule
0 1
6  -0.515154  2.849665  -0.214527
9  0.576705  2.31703  0.006569
9  -1.143422  3.249225  0.787855
9  -1.210744  0.982788  0.51898
9  -1.134016  2.531331  -1.18378
$end

$rem
jobtype      sp
sym_ignore true
exchange     hf
basis        6-31G*
unrestricted true
$end

--------------------------------------------------------------

    9    -435.3981952416      7.73E-06 Convergence criterion met
 Total energy in the final basis set = -435.3981952416
 Total job time:  4.77s(wall), 11.19s(cpu)
        *  Thank you very much for using Q-Chem.  Have a nice day.  *
 Q-Chem 4.3, Q-Chem, Inc., Pleasanton, CA (2015)
 Q-Chem 4.3.0 for Intel X86 Linux

User input:
--------------------------------------------------------------

$comment
job3 - cvs-adc(2) calculation
$end

$molecule
read
$end

$rem
mem_total 3000
mem_static 1500
sym_ignore true
scf_guess read
method cvs-adc(2)
basis 6-31G*
ee_singlets 20
cc_rest_occ 5                  !only excitations from the lowest N orbitals
unrestricted  true
max_scf_cycles 200
$end
--------------------------------------------------------------

             Standard Nuclear Orientation (Angstroms)
    I     Atom           X                Y                Z
 ----------------------------------------------------------------
    1      C      -0.5151540000     2.8496650000    -0.2145270000
    2      F       0.5767050000     2.3170300000     0.0065690000
    3      F      -1.1434220000     3.2492250000     0.7878550000
    4      F      -1.2107440000     0.9827880000     0.5189800000
    5      F      -1.1340160000     2.5313310000    -1.1837800000
 ----------------------------------------------------------------

    7    -435.3981956334      3.55E-09 Convergence criterion met
 Total energy in the final basis set = -435.3981956334
  Term symbol:  2 (-) A                                     R^2 =  3.83818e-14
  Excitation energy:                                             293.784488 eV
  Term symbol:  3 (-) A                                     R^2 =  3.49244e-14
  Excitation energy:                                             295.611375 eV
  Term symbol:  4 (-) A                                     R^2 =  6.59935e-14
  Excitation energy:                                             304.166244 eV
  Term symbol:  5 (-) A                                     R^2 =  3.59182e-14
  Excitation energy:                                             304.611603 eV
  Term symbol:  6 (-) A                                     R^2 =  7.67216e-14
  Excitation energy:                                             305.925327 eV
  Term symbol:  7 (-) A                                     R^2 =  5.49717e-14
  Excitation energy:                                             306.254872 eV
  Term symbol:  8 (-) A                                     R^2 =  6.97778e-14
  Excitation energy:                                             306.690496 eV
  Term symbol:  9 (-) A                                     R^2 =  6.64571e-14
  Excitation energy:                                             307.911930 eV
  Term symbol:  10 (-) A                                    R^2 =  9.37678e-14
  Excitation energy:                                             311.968175 eV
  Excited state 10 (A)                                             [converged]
  Term symbol:  11 (-) A                                    R^2 =  8.56971e-14
  Excitation energy:                                             313.590162 eV
  Excited state 11 (A)                                             [converged]
  Term symbol:  12 (-) A                                    R^2 =  1.45160e-13
  Excitation energy:                                             314.170769 eV
  Excited state 12 (A)                                             [converged]
  Term symbol:  13 (-) A                                    R^2 =  1.05324e-13
  Excitation energy:                                             314.327995 eV
  Excited state 13 (A)                                             [converged]
  Term symbol:  14 (-) A                                    R^2 =  3.47283e-13
  Excitation energy:                                             314.601785 eV
  Excited state 14 (A)                                             [converged]
  Term symbol:  15 (-) A                                    R^2 =  1.82123e-13
  Excitation energy:                                             314.852029 eV
  Excited state 15 (A)                                             [converged]
  Term symbol:  16 (-) A                                    R^2 =  4.15326e-12
  Excitation energy:                                             320.207152 eV
  Excited state 16 (A)                                             [converged]
  Term symbol:  17 (-) A                                    R^2 =  6.34508e-13
  Excitation energy:                                             320.709024 eV
  Excited state 17 (A)                                             [converged]
  Term symbol:  18 (-) A                                    R^2 =  4.54573e-07
  Excitation energy:                                             331.546801 eV
  Excited state 18 (A)                                             [converged]
  Term symbol:  19 (-) A                                    R^2 =  4.98942e-07
  Excitation energy:                                             331.704943 eV
  Excited state 19 (A)                                         [not converged]
  Term symbol:  20 (-) A                                    R^2 =  1.02609e-05
  Excitation energy:                                             332.032078 eV
  Excited state 20 (A)                                         [not converged]
  Term symbol:  21 (-) A                                    R^2 =  1.58759e-06
  Excitation energy:                                             332.169848 eV

                    Orbital Energies (a.u.)
 --------------------------------------------------------------

 Alpha MOs
 -- Occupied --
-26.512 -26.491 -26.484 -26.007 -11.711  -1.926  -1.827  -1.798
 -1.278  -1.087  -1.001  -0.996  -0.938  -0.830  -0.828  -0.809
 -0.793  -0.776  -0.377  -0.377  -0.375

 Beta MOs
 -- Occupied --
-26.512 -26.491 -26.484 -26.007 -11.711  -1.926  -1.827  -1.798
 -1.278  -1.087  -1.001  -0.996  -0.938  -0.830  -0.828  -0.809
 -0.793  -0.776  -0.377  -0.377  -0.375

          Ground-State Mulliken Net Atomic Charges

     Atom                 Charge (a.u.)    Spin (a.u.)
  --------------------------------------------------------
      1 C                     1.204630       0.000000
      2 F                    -0.137036       0.000000
      3 F                    -0.152479       0.000000
      4 F                    -0.829270       0.000000
      5 F                    -0.085845       0.000000
  --------------------------------------------------------
  Sum of atomic charges =     0.000000

                    Cartesian Multipole Moments
 -----------------------------------------------------------------
    Charge (ESU x 10^10)
                 0.0000
    Dipole Moment (Debye)
         X       2.6733      Y       7.2836      Z      -3.0942
       Tot       8.3529
    Quadrupole Moments (Debye-Ang)
        XX     -27.5443     XY      -0.8151     YY       5.7869
        XZ       2.9899     YZ      -5.4105     ZZ     -23.5689

 Total job time:  1923.63s(wall), 3141.24s(cpu)
        *  Thank you very much for using Q-Chem.  Have a nice day.  *
