 Q-Chem 4.3, Q-Chem, Inc., Pleasanton, CA (2015)
 Q-Chem 4.3.0 for Intel X86 Linux

User input:
--------------------------------------------------------------
$comment
XAS calculation for the 2b valence excited for water using cvs-adc(2)-x + 6-311+G* basis set
job 1 - determination of HF orbitals
$end

$molecule
0 1
6  -0.483365  2.92889  -0.220505
9  0.575693  2.319724  0.003285
9  -1.140331  3.249258  0.781429
9  -1.230501  0.929301  0.541482
9  -1.136455  2.532105  -1.192592
$end

$rem
jobtype      sp
sym_ignore true
exchange     hf
basis        6-31G*
unrestricted true
$end

--------------------------------------------------------------

   10    -435.3634378348      8.74E-06 Convergence criterion met
 Total energy in the final basis set = -435.3634378348
 Total job time:  2.57s(wall), 12.10s(cpu)
        *  Thank you very much for using Q-Chem.  Have a nice day.  *
 Q-Chem 4.3, Q-Chem, Inc., Pleasanton, CA (2015)
 Q-Chem 4.3.0 for Intel X86 Linux

User input:
--------------------------------------------------------------

$comment
job3 - cvs-adc(2) calculation
$end

$molecule
read
$end

$rem
mem_total 3000
mem_static 1500
sym_ignore true
scf_guess read
method cvs-adc(2)
basis 6-31G*
ee_singlets 20
cc_rest_occ 5                  !only excitations from the lowest N orbitals
unrestricted  true
max_scf_cycles 200
$end
--------------------------------------------------------------

             Standard Nuclear Orientation (Angstroms)
    I     Atom           X                Y                Z
 ----------------------------------------------------------------
    1      C      -0.4833650000     2.9288900000    -0.2205050000
    2      F       0.5756930000     2.3197240000     0.0032850000
    3      F      -1.1403310000     3.2492580000     0.7814290000
    4      F      -1.2305010000     0.9293010000     0.5414820000
    5      F      -1.1364550000     2.5321050000    -1.1925920000
 ----------------------------------------------------------------

    9    -435.3634384382      5.14E-09 Convergence criterion met
 Total energy in the final basis set = -435.3634384382
  Term symbol:  2 (-) A                                     R^2 =  3.36902e-13
  Excitation energy:                                             293.067918 eV
  Term symbol:  3 (-) A                                     R^2 =  5.66704e-13
  Excitation energy:                                             294.880548 eV
  Term symbol:  4 (-) A                                     R^2 =  4.49011e-13
  Excitation energy:                                             304.336658 eV
  Term symbol:  5 (-) A                                     R^2 =  6.71627e-13
  Excitation energy:                                             304.440947 eV
  Term symbol:  6 (-) A                                     R^2 =  7.88542e-13
  Excitation energy:                                             304.639773 eV
  Term symbol:  7 (-) A                                     R^2 =  1.74185e-12
  Excitation energy:                                             306.359605 eV
  Term symbol:  8 (-) A                                     R^2 =  6.48487e-13
  Excitation energy:                                             306.465924 eV
  Term symbol:  9 (-) A                                     R^2 =  1.75107e-12
  Excitation energy:                                             306.735503 eV
  Term symbol:  10 (-) A                                    R^2 =  8.87916e-13
  Excitation energy:                                             312.040172 eV
  Excited state 10 (A)                                             [converged]
  Term symbol:  11 (-) A                                    R^2 =  6.25632e-13
  Excitation energy:                                             313.602486 eV
  Excited state 11 (A)                                             [converged]
  Term symbol:  12 (-) A                                    R^2 =  6.06134e-13
  Excitation energy:                                             314.059853 eV
  Excited state 12 (A)                                             [converged]
  Term symbol:  13 (-) A                                    R^2 =  1.22224e-12
  Excitation energy:                                             314.079877 eV
  Excited state 13 (A)                                             [converged]
  Term symbol:  14 (-) A                                    R^2 =  4.21882e-13
  Excitation energy:                                             314.570880 eV
  Excited state 14 (A)                                             [converged]
  Term symbol:  15 (-) A                                    R^2 =  7.35246e-13
  Excitation energy:                                             314.597687 eV
  Excited state 15 (A)                                             [converged]
  Term symbol:  16 (-) A                                    R^2 =  1.32620e-12
  Excitation energy:                                             320.325032 eV
  Excited state 16 (A)                                             [converged]
  Term symbol:  17 (-) A                                    R^2 =  1.33217e-12
  Excitation energy:                                             320.818684 eV
  Excited state 17 (A)                                         [not converged]
  Term symbol:  18 (-) A                                    R^2 =  1.11698e-06
  Excitation energy:                                             332.140393 eV
  Excited state 18 (A)                                         [not converged]
  Term symbol:  19 (-) A                                    R^2 =  8.31770e-06
  Excitation energy:                                             332.229594 eV
  Excited state 19 (A)                                             [converged]
  Term symbol:  20 (-) A                                    R^2 =  6.13279e-07
  Excitation energy:                                             332.229866 eV
  Excited state 20 (A)                                         [not converged]
  Term symbol:  21 (-) A                                    R^2 =  2.80648e-04
  Excitation energy:                                             332.276762 eV

                    Orbital Energies (a.u.)
 --------------------------------------------------------------

 Alpha MOs
 -- Occupied --
-26.512 -26.509 -26.509 -25.972 -11.730  -1.924  -1.818  -1.815
 -1.244  -1.094  -1.002  -1.001  -0.939  -0.837  -0.836  -0.806
 -0.803  -0.788  -0.347  -0.345  -0.345

 Beta MOs
 -- Occupied --
-26.512 -26.509 -26.509 -25.972 -11.730  -1.924  -1.818  -1.815
 -1.244  -1.094  -1.002  -1.001  -0.939  -0.837  -0.836  -0.806
 -0.803  -0.788  -0.347  -0.345  -0.345

          Ground-State Mulliken Net Atomic Charges

     Atom                 Charge (a.u.)    Spin (a.u.)
  --------------------------------------------------------
      1 C                     1.227281       0.000000
      2 F                    -0.119126       0.000000
      3 F                    -0.115867       0.000000
      4 F                    -0.876921       0.000000
      5 F                    -0.115368       0.000000
  --------------------------------------------------------
  Sum of atomic charges =     0.000000

                    Cartesian Multipole Moments
 -----------------------------------------------------------------
    Charge (ESU x 10^10)
                 0.0000
    Dipole Moment (Debye)
         X       3.1100      Y       8.3639      Z      -3.1871
       Tot       9.4755
    Quadrupole Moments (Debye-Ang)
        XX     -28.0749     XY      -0.7847     YY      10.4517
        XZ       3.0883     YZ      -5.2057     ZZ     -23.7324

 Total job time:  1965.11s(wall), 3188.71s(cpu)
        *  Thank you very much for using Q-Chem.  Have a nice day.  *
