 Q-Chem 4.3, Q-Chem, Inc., Pleasanton, CA (2015)
 Q-Chem 4.3.0 for Intel X86 Linux

User input:
--------------------------------------------------------------
$comment
XAS calculation for the 2b valence excited for water using cvs-adc(2)-x + 6-311+G* basis set
job 1 - determination of HF orbitals
$end

$molecule
0 1
6  -0.69934  2.420373  0.0
9  0.60215  2.34967  -0.0
9  -1.13316  3.29245  0.78541
9  -1.13317  1.1981  0.42375
9  -1.13317  2.55847  -1.20916
$end

$rem
jobtype      sp
sym_ignore true
exchange     hf
basis        6-31G*
unrestricted true
$end

--------------------------------------------------------------

    8    -435.6383843143      3.37E-06 Convergence criterion met
 Total energy in the final basis set = -435.6383843143
 Total job time:  2.32s(wall), 10.17s(cpu)
        *  Thank you very much for using Q-Chem.  Have a nice day.  *
 Q-Chem 4.3, Q-Chem, Inc., Pleasanton, CA (2015)
 Q-Chem 4.3.0 for Intel X86 Linux

User input:
--------------------------------------------------------------

$comment
job3 - cvs-adc(2) calculation
$end

$molecule
read
$end

$rem
mem_total 3000
mem_static 1500
sym_ignore true
scf_guess read
method cvs-adc(2)
basis 6-31G*
ee_singlets 20
cc_rest_occ 5                  !only excitations from the lowest N orbitals
unrestricted  true
max_scf_cycles 200
$end
--------------------------------------------------------------

             Standard Nuclear Orientation (Angstroms)
    I     Atom           X                Y                Z
 ----------------------------------------------------------------
    1      C      -0.6993400000     2.4203730000     0.0000000000
    2      F       0.6021500000     2.3496700000     0.0000000000
    3      F      -1.1331600000     3.2924500000     0.7854100000
    4      F      -1.1331700000     1.1981000000     0.4237500000
    5      F      -1.1331700000     2.5584700000    -1.2091600000
 ----------------------------------------------------------------

    5    -435.6383842699      3.67E-09 Convergence criterion met
 Total energy in the final basis set = -435.6383842699
  Term symbol:  2 (-) A                                     R^2 =  5.33187e-14
  Excitation energy:                                             300.324292 eV
  Term symbol:  3 (-) A                                     R^2 =  7.92733e-14
  Excitation energy:                                             301.770004 eV
  Term symbol:  4 (-) A                                     R^2 =  6.63018e-14
  Excitation energy:                                             302.450379 eV
  Term symbol:  5 (-) A                                     R^2 =  5.07737e-14
  Excitation energy:                                             302.742056 eV
  Term symbol:  6 (-) A                                     R^2 =  4.85422e-14
  Excitation energy:                                             303.929294 eV
  Term symbol:  7 (-) A                                     R^2 =  6.45893e-14
  Excitation energy:                                             304.095582 eV
  Term symbol:  8 (-) A                                     R^2 =  4.38779e-14
  Excitation energy:                                             304.980336 eV
  Term symbol:  9 (-) A                                     R^2 =  5.27977e-14
  Excitation energy:                                             306.583405 eV
  Term symbol:  10 (-) A                                    R^2 =  9.03788e-14
  Excitation energy:                                             312.836360 eV
  Excited state 10 (A)                                             [converged]
  Term symbol:  11 (-) A                                    R^2 =  1.39317e-13
  Excitation energy:                                             313.590555 eV
  Excited state 11 (A)                                             [converged]
  Term symbol:  12 (-) A                                    R^2 =  6.14671e-14
  Excitation energy:                                             313.609699 eV
  Excited state 12 (A)                                             [converged]
  Term symbol:  13 (-) A                                    R^2 =  8.28054e-14
  Excitation energy:                                             313.685821 eV
  Excited state 13 (A)                                             [converged]
  Term symbol:  14 (-) A                                    R^2 =  7.65136e-14
  Excitation energy:                                             314.008110 eV
  Excited state 14 (A)                                             [converged]
  Term symbol:  15 (-) A                                    R^2 =  7.50748e-14
  Excitation energy:                                             314.110175 eV
  Excited state 15 (A)                                             [converged]
  Term symbol:  16 (-) A                                    R^2 =  2.50939e-13
  Excitation energy:                                             314.174350 eV
  Excited state 16 (A)                                             [converged]
  Term symbol:  17 (-) A                                    R^2 =  4.27546e-13
  Excitation energy:                                             314.606233 eV
  Excited state 17 (A)                                             [converged]
  Term symbol:  18 (-) A                                    R^2 =  2.15762e-07
  Excitation energy:                                             330.200867 eV
  Excited state 18 (A)                                             [converged]
  Term symbol:  19 (-) A                                    R^2 =  2.81695e-08
  Excitation energy:                                             330.225656 eV
  Excited state 19 (A)                                             [converged]
  Term symbol:  20 (-) A                                    R^2 =  5.76090e-07
  Excitation energy:                                             330.235027 eV
  Excited state 20 (A)                                             [converged]
  Term symbol:  21 (-) A                                    R^2 =  3.40042e-07
  Excitation energy:                                             330.258029 eV

                    Orbital Energies (a.u.)
 --------------------------------------------------------------

 Alpha MOs
 -- Occupied --
-26.399 -26.380 -26.374 -26.343 -11.606  -1.822  -1.709  -1.682
 -1.639  -1.008  -0.901  -0.894  -0.883  -0.762  -0.759  -0.719
 -0.709  -0.685  -0.681  -0.662  -0.658

 Beta MOs
 -- Occupied --
-26.399 -26.380 -26.374 -26.343 -11.606  -1.822  -1.709  -1.682
 -1.639  -1.008  -0.901  -0.894  -0.883  -0.762  -0.759  -0.719
 -0.709  -0.685  -0.681  -0.662  -0.658

          Ground-State Mulliken Net Atomic Charges

     Atom                 Charge (a.u.)    Spin (a.u.)
  --------------------------------------------------------
      1 C                     1.306224       0.000000
      2 F                    -0.329185       0.000000
      3 F                    -0.270689       0.000000
      4 F                    -0.389301       0.000000
      5 F                    -0.317049       0.000000
  --------------------------------------------------------
  Sum of atomic charges =     0.000000

                    Cartesian Multipole Moments
 -----------------------------------------------------------------
    Charge (ESU x 10^10)
                 0.0000
    Dipole Moment (Debye)
         X      -0.0015      Y       0.7495      Z       0.0023
       Tot       0.7495
    Quadrupole Moments (Debye-Ang)
        XX     -24.9337     XY      -0.7382     YY     -21.5228
        XZ      -0.0030     YZ       0.2655     ZZ     -24.7887

 Total job time:  1904.85s(wall), 3097.04s(cpu)
        *  Thank you very much for using Q-Chem.  Have a nice day.  *
