 Q-Chem 4.3, Q-Chem, Inc., Pleasanton, CA (2015)
 Q-Chem 4.3.0 for Intel X86 Linux

User input:
--------------------------------------------------------------
$comment
XAS calculation for the 2b valence excited for water using cvs-adc(2)-x + 6-311+G* basis set
job 1 - determination of HF orbitals
$end

$molecule
0 1
6  -0.656569  2.728147  -0.10578
9  0.507707  2.446623  0.014292
9  -1.024724  3.743269  0.628592
9  -1.21364  0.091488  0.691061
9  -1.098549  2.87916  -1.26355
$end

$rem
jobtype      sp
sym_ignore true
exchange     hf
basis        6-31G*
unrestricted true
$end

--------------------------------------------------------------

   13    -435.3526735533      2.32E-06 Convergence criterion met
 Total energy in the final basis set = -435.3526735533
 Total job time:  3.27s(wall), 15.42s(cpu)
        *  Thank you very much for using Q-Chem.  Have a nice day.  *
 Q-Chem 4.3, Q-Chem, Inc., Pleasanton, CA (2015)
 Q-Chem 4.3.0 for Intel X86 Linux

User input:
--------------------------------------------------------------

$comment
job3 - cvs-adc(2) calculation
$end

$molecule
read
$end

$rem
mem_total 3000
mem_static 1500
sym_ignore true
scf_guess read
method cvs-adc(2)
basis 6-31G*
ee_singlets 20
cc_rest_occ 5                  !only excitations from the lowest N orbitals
unrestricted  true
max_scf_cycles 200
$end
--------------------------------------------------------------

             Standard Nuclear Orientation (Angstroms)
    I     Atom           X                Y                Z
 ----------------------------------------------------------------
    1      C      -0.6565690000     2.7281470000    -0.1057800000
    2      F       0.5077070000     2.4466230000     0.0142920000
    3      F      -1.0247240000     3.7432690000     0.6285920000
    4      F      -1.2136400000     0.0914880000     0.6910610000
    5      F      -1.0985490000     2.8791600000    -1.2635500000
 ----------------------------------------------------------------

    7    -435.3526736393      7.73E-09 Convergence criterion met
 Total energy in the final basis set = -435.3526736393
  Term symbol:  2 (-) A                                     R^2 =  7.91794e-14
  Excitation energy:                                             294.013028 eV
  Term symbol:  3 (-) A                                     R^2 =  4.26318e-14
  Excitation energy:                                             295.863288 eV
  Term symbol:  4 (-) A                                     R^2 =  2.32945e-13
  Excitation energy:                                             302.162343 eV
  Term symbol:  5 (-) A                                     R^2 =  1.89045e-13
  Excitation energy:                                             303.899128 eV
  Term symbol:  6 (-) A                                     R^2 =  1.59016e-13
  Excitation energy:                                             304.259005 eV
  Term symbol:  7 (-) A                                     R^2 =  1.15651e-13
  Excitation energy:                                             305.172429 eV
  Term symbol:  8 (-) A                                     R^2 =  1.49176e-13
  Excitation energy:                                             305.911007 eV
  Term symbol:  9 (-) A                                     R^2 =  9.62493e-14
  Excitation energy:                                             307.007908 eV
  Term symbol:  10 (-) A                                    R^2 =  9.28763e-14
  Excitation energy:                                             313.229913 eV
  Excited state 10 (A)                                             [converged]
  Term symbol:  11 (-) A                                    R^2 =  1.01953e-13
  Excitation energy:                                             313.637877 eV
  Excited state 11 (A)                                             [converged]
  Term symbol:  12 (-) A                                    R^2 =  1.74839e-13
  Excitation energy:                                             313.794600 eV
  Excited state 12 (A)                                             [converged]
  Term symbol:  13 (-) A                                    R^2 =  1.27657e-13
  Excitation energy:                                             313.955679 eV
  Excited state 13 (A)                                             [converged]
  Term symbol:  14 (-) A                                    R^2 =  9.21287e-14
  Excitation energy:                                             314.297186 eV
  Excited state 14 (A)                                             [converged]
  Term symbol:  15 (-) A                                    R^2 =  1.39771e-13
  Excitation energy:                                             314.459823 eV
  Excited state 15 (A)                                             [converged]
  Term symbol:  16 (-) A                                    R^2 =  2.59339e-13
  Excitation energy:                                             314.698712 eV
  Excited state 16 (A)                                             [converged]
  Term symbol:  17 (-) A                                    R^2 =  2.53169e-13
  Excitation energy:                                             315.771713 eV
  Excited state 17 (A)                                             [converged]
  Term symbol:  18 (-) A                                    R^2 =  5.84242e-12
  Excitation energy:                                             325.998391 eV
  Excited state 18 (A)                                             [converged]
  Term symbol:  19 (-) A                                    R^2 =  6.69102e-12
  Excitation energy:                                             326.070581 eV
  Excited state 19 (A)                                         [not converged]
  Term symbol:  20 (-) A                                    R^2 =  1.62413e-05
  Excitation energy:                                             331.136934 eV
  Excited state 20 (A)                                         [not converged]
  Term symbol:  21 (-) A                                    R^2 =  2.16024e-05
  Excitation energy:                                             331.290313 eV

                    Orbital Energies (a.u.)
 --------------------------------------------------------------

 Alpha MOs
 -- Occupied --
-26.522 -26.512 -26.492 -26.098 -11.724  -1.934  -1.836  -1.787
 -1.319  -1.103  -1.007  -0.996  -0.948  -0.854  -0.835  -0.820
 -0.801  -0.786  -0.436  -0.436  -0.369

 Beta MOs
 -- Occupied --
-26.522 -26.512 -26.492 -26.098 -11.724  -1.934  -1.836  -1.787
 -1.319  -1.103  -1.007  -0.996  -0.948  -0.854  -0.835  -0.820
 -0.801  -0.786  -0.436  -0.436  -0.369

          Ground-State Mulliken Net Atomic Charges

     Atom                 Charge (a.u.)    Spin (a.u.)
  --------------------------------------------------------
      1 C                     1.111978       0.000000
      2 F                    -0.094541       0.000000
      3 F                    -0.230102       0.000000
      4 F                    -0.624743       0.000000
      5 F                    -0.162593       0.000000
  --------------------------------------------------------
  Sum of atomic charges =     0.000000

                    Cartesian Multipole Moments
 -----------------------------------------------------------------
    Charge (ESU x 10^10)
                 0.0000
    Dipole Moment (Debye)
         X       1.8305      Y       7.3652      Z      -2.4078
       Tot       7.9621
    Quadrupole Moments (Debye-Ang)
        XX     -26.3157     XY      -3.8452     YY      -3.1638
        XZ       2.6254     YZ      -1.6419     ZZ     -24.7721

 Total job time:  2070.83s(wall), 3382.22s(cpu)
        *  Thank you very much for using Q-Chem.  Have a nice day.  *
