 Q-Chem 4.3, Q-Chem, Inc., Pleasanton, CA (2015)
 Q-Chem 4.3.0 for Intel X86 Linux

User input:
--------------------------------------------------------------
$comment
XAS calculation for the 2b valence excited for water using cvs-adc(2)-x + 6-311+G* basis set
job 1 - determination of HF orbitals
$end

$molecule
0 1
6  -0.670158  2.763988  -0.109534
9  0.519291  2.4527  0.015283
9  -1.017902  3.766284  0.619466
9  -1.223903  0.021027  0.70984
9  -1.098054  2.89777  -1.271892
$end

$rem
jobtype      sp
sym_ignore true
exchange     hf
basis        6-31G*
unrestricted true
$end

--------------------------------------------------------------

   14    -435.3442620727      4.52E-06 Convergence criterion met
 Total energy in the final basis set = -435.3442620727
 Total job time:  3.75s(wall), 17.20s(cpu)
        *  Thank you very much for using Q-Chem.  Have a nice day.  *
 Q-Chem 4.3, Q-Chem, Inc., Pleasanton, CA (2015)
 Q-Chem 4.3.0 for Intel X86 Linux

User input:
--------------------------------------------------------------

$comment
job3 - cvs-adc(2) calculation
$end

$molecule
read
$end

$rem
mem_total 3000
mem_static 1500
sym_ignore true
scf_guess read
method cvs-adc(2)
basis 6-31G*
ee_singlets 20
cc_rest_occ 5                  !only excitations from the lowest N orbitals
unrestricted  true
max_scf_cycles 200
$end
--------------------------------------------------------------

             Standard Nuclear Orientation (Angstroms)
    I     Atom           X                Y                Z
 ----------------------------------------------------------------
    1      C      -0.6701580000     2.7639880000    -0.1095340000
    2      F       0.5192910000     2.4527000000     0.0152830000
    3      F      -1.0179020000     3.7662840000     0.6194660000
    4      F      -1.2239030000     0.0210270000     0.7098400000
    5      F      -1.0980540000     2.8977700000    -1.2718920000
 ----------------------------------------------------------------

    9    -435.3442621721      5.61E-09 Convergence criterion met
 Total energy in the final basis set = -435.3442621721
  Term symbol:  2 (-) A                                     R^2 =  9.83705e-06
  Excitation energy:                                             294.007556 eV
  Term symbol:  3 (-) A                                     R^2 =  1.03423e-06
  Excitation energy:                                             295.830961 eV
  Term symbol:  4 (-) A                                     R^2 =  4.77824e-08
  Excitation energy:                                             302.551431 eV
  Term symbol:  5 (-) A                                     R^2 =  1.57431e-07
  Excitation energy:                                             303.859696 eV
  Term symbol:  6 (-) A                                     R^2 =  4.79600e-07
  Excitation energy:                                             304.200472 eV
  Term symbol:  7 (-) A                                     R^2 =  2.94506e-08
  Excitation energy:                                             304.621840 eV
  Term symbol:  8 (-) A                                     R^2 =  1.11193e-07
  Excitation energy:                                             305.815682 eV
  Term symbol:  9 (-) A                                     R^2 =  3.23104e-07
  Excitation energy:                                             306.171208 eV
  Term symbol:  10 (-) A                                    R^2 =  3.28844e-07
  Excitation energy:                                             313.201295 eV
  Excited state 10 (A)                                             [converged]
  Term symbol:  11 (-) A                                    R^2 =  4.73829e-07
  Excitation energy:                                             313.459547 eV
  Excited state 11 (A)                                             [converged]
  Term symbol:  12 (-) A                                    R^2 =  9.24664e-09
  Excitation energy:                                             313.759958 eV
  Excited state 12 (A)                                             [converged]
  Term symbol:  13 (-) A                                    R^2 =  3.28079e-07
  Excitation energy:                                             313.861949 eV
  Excited state 13 (A)                                             [converged]
  Term symbol:  14 (-) A                                    R^2 =  2.10148e-07
  Excitation energy:                                             314.275751 eV
  Excited state 14 (A)                                             [converged]
  Term symbol:  15 (-) A                                    R^2 =  8.29780e-08
  Excitation energy:                                             314.325371 eV
  Excited state 15 (A)                                             [converged]
  Term symbol:  16 (-) A                                    R^2 =  3.00881e-07
  Excitation energy:                                             314.404088 eV
  Excited state 16 (A)                                             [converged]
  Term symbol:  17 (-) A                                    R^2 =  3.95484e-07
  Excitation energy:                                             315.431055 eV
  Excited state 17 (A)                                             [converged]
  Term symbol:  18 (-) A                                    R^2 =  6.93050e-07
  Excitation energy:                                             325.242606 eV
  Excited state 18 (A)                                             [converged]
  Term symbol:  19 (-) A                                    R^2 =  3.12203e-07
  Excitation energy:                                             325.318391 eV
  Excited state 19 (A)                                         [not converged]
  Term symbol:  20 (-) A                                    R^2 =  9.07992e-04
  Excitation energy:                                             331.303406 eV
  Excited state 20 (A)                                         [not converged]
  Term symbol:  21 (-) A                                    R^2 =  1.59474e-04
  Excitation energy:                                             331.430558 eV

                    Orbital Energies (a.u.)
 --------------------------------------------------------------

 Alpha MOs
 -- Occupied --
-26.520 -26.515 -26.506 -26.088 -11.729  -1.928  -1.829  -1.803
 -1.310  -1.105  -1.005  -0.999  -0.948  -0.855  -0.842  -0.819
 -0.810  -0.794  -0.427  -0.427  -0.357

 Beta MOs
 -- Occupied --
-26.520 -26.515 -26.506 -26.088 -11.729  -1.928  -1.829  -1.803
 -1.310  -1.105  -1.005  -0.999  -0.948  -0.855  -0.842  -0.819
 -0.810  -0.794  -0.427  -0.427  -0.357

          Ground-State Mulliken Net Atomic Charges

     Atom                 Charge (a.u.)    Spin (a.u.)
  --------------------------------------------------------
      1 C                     1.129636       0.000000
      2 F                    -0.130732       0.000000
      3 F                    -0.208516       0.000000
      4 F                    -0.634335       0.000000
      5 F                    -0.156054       0.000000
  --------------------------------------------------------
  Sum of atomic charges =     0.000000

                    Cartesian Multipole Moments
 -----------------------------------------------------------------
    Charge (ESU x 10^10)
                 0.0000
    Dipole Moment (Debye)
         X       1.6705      Y       7.9274      Z      -2.4919
       Tot       8.4760
    Quadrupole Moments (Debye-Ang)
        XX     -26.2384     XY      -4.9226     YY      -1.4912
        XZ       2.7476     YZ      -1.4508     ZZ     -24.7849

 Total job time:  2084.57s(wall), 3396.76s(cpu)
        *  Thank you very much for using Q-Chem.  Have a nice day.  *
