 Q-Chem 4.3, Q-Chem, Inc., Pleasanton, CA (2015)
 Q-Chem 4.3.0 for Intel X86 Linux

User input:
--------------------------------------------------------------
$comment
XAS calculation for the 2b valence excited for water using cvs-adc(2)-x + 6-311+G* basis set
job 1 - determination of HF orbitals
$end

$molecule
0 1
6  -0.32098  3.037526  -0.38981
9  0.899271  2.983327  -0.289066
9  -0.986719  3.145818  0.729856
9  -2.126331  0.071298  1.222049
9  -0.866208  2.857482  -1.415399
$end

$rem
jobtype      sp
sym_ignore true
exchange     hf
basis        6-31G*
unrestricted true
$end

--------------------------------------------------------------

   13    -435.2878111311      9.16E-06 Convergence criterion met
 Total energy in the final basis set = -435.2878111311
 Total job time:  3.47s(wall), 16.00s(cpu)
        *  Thank you very much for using Q-Chem.  Have a nice day.  *
 Q-Chem 4.3, Q-Chem, Inc., Pleasanton, CA (2015)
 Q-Chem 4.3.0 for Intel X86 Linux

User input:
--------------------------------------------------------------

$comment
job3 - cvs-adc(2) calculation
$end

$molecule
read
$end

$rem
mem_total 3000
mem_static 1500
sym_ignore true
scf_guess read
method cvs-adc(2)
basis 6-31G*
ee_singlets 20
cc_rest_occ 5                  !only excitations from the lowest N orbitals
unrestricted  true
max_scf_cycles 200
$end
--------------------------------------------------------------

             Standard Nuclear Orientation (Angstroms)
    I     Atom           X                Y                Z
 ----------------------------------------------------------------
    1      C      -0.3209800000     3.0375260000    -0.3898100000
    2      F       0.8992710000     2.9833270000    -0.2890660000
    3      F      -0.9867190000     3.1458180000     0.7298560000
    4      F      -2.1263310000     0.0712980000     1.2220490000
    5      F      -0.8662080000     2.8574820000    -1.4153990000
 ----------------------------------------------------------------

   10    -435.2878113542      3.71E-09 Convergence criterion met
 Total energy in the final basis set = -435.2878113542
  Term symbol:  2 (-) A                                     R^2 =  4.27225e-13
  Excitation energy:                                             294.337417 eV
  Term symbol:  3 (-) A                                     R^2 =  7.96278e-14
  Excitation energy:                                             296.229262 eV
  Term symbol:  4 (-) A                                     R^2 =  5.82860e-14
  Excitation energy:                                             301.968223 eV
  Term symbol:  5 (-) A                                     R^2 =  2.47274e-13
  Excitation energy:                                             303.764862 eV
  Term symbol:  6 (-) A                                     R^2 =  4.80425e-14
  Excitation energy:                                             304.396716 eV
  Term symbol:  7 (-) A                                     R^2 =  5.42613e-14
  Excitation energy:                                             306.406602 eV
  Term symbol:  8 (-) A                                     R^2 =  8.00543e-14
  Excitation energy:                                             306.588740 eV
  Term symbol:  9 (-) A                                     R^2 =  4.26529e-14
  Excitation energy:                                             308.634117 eV
  Term symbol:  10 (-) A                                    R^2 =  1.47050e-13
  Excitation energy:                                             313.223853 eV
  Excited state 10 (A)                                             [converged]
  Term symbol:  11 (-) A                                    R^2 =  8.17802e-14
  Excitation energy:                                             314.283066 eV
  Excited state 11 (A)                                             [converged]
  Term symbol:  12 (-) A                                    R^2 =  8.08386e-14
  Excitation energy:                                             314.345150 eV
  Excited state 12 (A)                                             [converged]
  Term symbol:  13 (-) A                                    R^2 =  1.92587e-13
  Excitation energy:                                             315.072507 eV
  Excited state 13 (A)                                             [converged]
  Term symbol:  14 (-) A                                    R^2 =  1.27943e-13
  Excitation energy:                                             315.124603 eV
  Excited state 14 (A)                                             [converged]
  Term symbol:  15 (-) A                                    R^2 =  1.74074e-13
  Excitation energy:                                             315.339072 eV
  Excited state 15 (A)                                             [converged]
  Term symbol:  16 (-) A                                    R^2 =  3.33796e-13
  Excitation energy:                                             315.598152 eV
  Excited state 16 (A)                                             [converged]
  Term symbol:  17 (-) A                                    R^2 =  9.60168e-13
  Excitation energy:                                             316.180219 eV
  Excited state 17 (A)                                             [converged]
  Term symbol:  18 (-) A                                    R^2 =  3.57955e-07
  Excitation energy:                                             324.032958 eV
  Excited state 18 (A)                                             [converged]
  Term symbol:  19 (-) A                                    R^2 =  2.00333e-12
  Excitation energy:                                             324.036437 eV
  Excited state 19 (A)                                             [converged]
  Term symbol:  20 (-) A                                    R^2 =  4.59390e-08
  Excitation energy:                                             324.153407 eV
  Excited state 20 (A)                                         [not converged]
  Term symbol:  21 (-) A                                    R^2 =  5.73638e-02
  Excitation energy:                                             324.175975 eV

                    Orbital Energies (a.u.)
 --------------------------------------------------------------

 Alpha MOs
 -- Occupied --
-26.642 -26.618 -26.570 -25.852 -11.818  -2.046  -1.951  -1.863
 -1.197  -1.119  -1.113  -1.090  -1.054  -0.937  -0.929  -0.922
 -0.872  -0.867  -0.230  -0.230  -0.225

 Beta MOs
 -- Occupied --
-26.642 -26.618 -26.570 -25.852 -11.818  -2.046  -1.951  -1.863
 -1.197  -1.119  -1.113  -1.090  -1.054  -0.937  -0.929  -0.922
 -0.872  -0.867  -0.230  -0.230  -0.225

          Ground-State Mulliken Net Atomic Charges

     Atom                 Charge (a.u.)    Spin (a.u.)
  --------------------------------------------------------
      1 C                     1.250013       0.000000
      2 F                    -0.105090       0.000000
      3 F                    -0.143191       0.000000
      4 F                    -0.972857       0.000000
      5 F                    -0.028874       0.000000
  --------------------------------------------------------
  Sum of atomic charges =     0.000000

                    Cartesian Multipole Moments
 -----------------------------------------------------------------
    Charge (ESU x 10^10)
                 0.0000
    Dipole Moment (Debye)
         X       8.2093      Y      13.5846      Z      -7.7845
       Tot      17.6786
    Quadrupole Moments (Debye-Ang)
        XX     -42.6630     XY      -4.0805     YY      20.0021
        XZ      12.8667     YZ      -6.9664     ZZ     -28.0895

 Total job time:  2018.65s(wall), 3360.93s(cpu)
        *  Thank you very much for using Q-Chem.  Have a nice day.  *
