 Q-Chem 4.3, Q-Chem, Inc., Pleasanton, CA (2015)
 Q-Chem 4.3.0 for Intel X86 Linux

User input:
--------------------------------------------------------------
$comment
XAS calculation for the 2b valence excited for water using cvs-adc(2)-x + 6-311+G* basis set
job 1 - determination of HF orbitals
$end

$molecule
0 1
6  -0.628861  2.752502  -0.115759
9  0.49065  2.415965  0.01847
9  -1.040223  3.670545  0.645422
9  -1.192959  0.234049  0.653031
9  -1.104279  2.82483  -1.24009
$end

$rem
jobtype      sp
sym_ignore true
exchange     hf
basis        6-31G*
unrestricted true
$end

--------------------------------------------------------------

   11    -435.3801016542      5.40E-06 Convergence criterion met
 Total energy in the final basis set = -435.3801016542
 Total job time:  2.94s(wall), 13.26s(cpu)
        *  Thank you very much for using Q-Chem.  Have a nice day.  *
 Q-Chem 4.3, Q-Chem, Inc., Pleasanton, CA (2015)
 Q-Chem 4.3.0 for Intel X86 Linux

User input:
--------------------------------------------------------------

$comment
job3 - cvs-adc(2) calculation
$end

$molecule
read
$end

$rem
mem_total 3000
mem_static 1500
sym_ignore true
scf_guess read
method cvs-adc(2)
basis 6-31G*
ee_singlets 20
cc_rest_occ 5                  !only excitations from the lowest N orbitals
unrestricted  true
max_scf_cycles 200
$end
--------------------------------------------------------------

             Standard Nuclear Orientation (Angstroms)
    I     Atom           X                Y                Z
 ----------------------------------------------------------------
    1      C      -0.6288610000     2.7525020000    -0.1157590000
    2      F       0.4906500000     2.4159650000     0.0184700000
    3      F      -1.0402230000     3.6705450000     0.6454220000
    4      F      -1.1929590000     0.2340490000     0.6530310000
    5      F      -1.1042790000     2.8248300000    -1.2400900000
 ----------------------------------------------------------------

    8    -435.3801018803      3.69E-09 Convergence criterion met
 Total energy in the final basis set = -435.3801018803
  Term symbol:  2 (-) A                                     R^2 =  7.47232e-05
  Excitation energy:                                             294.444962 eV
  Term symbol:  3 (-) A                                     R^2 =  8.92547e-05
  Excitation energy:                                             296.406058 eV
  Term symbol:  4 (-) A                                     R^2 =  8.91802e-06
  Excitation energy:                                             303.550667 eV
  Term symbol:  5 (-) A                                     R^2 =  2.07501e-05
  Excitation energy:                                             304.582918 eV
  Term symbol:  6 (-) A                                     R^2 =  1.57690e-05
  Excitation energy:                                             305.579610 eV
  Term symbol:  7 (-) A                                     R^2 =  8.91957e-07
  Excitation energy:                                             306.371158 eV
  Term symbol:  8 (-) A                                     R^2 =  1.65947e-05
  Excitation energy:                                             306.480769 eV
  Term symbol:  9 (-) A                                     R^2 =  4.22890e-06
  Excitation energy:                                             308.295669 eV
  Term symbol:  10 (-) A                                    R^2 =  8.16735e-06
  Excitation energy:                                             313.017314 eV
  Excited state 10 (A)                                         [not converged]
  Term symbol:  11 (-) A                                    R^2 =  4.74813e-06
  Excitation energy:                                             314.118242 eV
  Excited state 11 (A)                                         [not converged]
  Term symbol:  12 (-) A                                    R^2 =  6.96831e-06
  Excitation energy:                                             314.181239 eV
  Excited state 12 (A)                                         [not converged]
  Term symbol:  13 (-) A                                    R^2 =  6.40187e-06
  Excitation energy:                                             314.363841 eV
  Excited state 13 (A)                                         [not converged]
  Term symbol:  14 (-) A                                    R^2 =  7.28632e-06
  Excitation energy:                                             314.728675 eV
  Excited state 14 (A)                                         [not converged]
  Term symbol:  15 (-) A                                    R^2 =  3.83252e-06
  Excitation energy:                                             314.892219 eV
  Excited state 15 (A)                                         [not converged]
  Term symbol:  16 (-) A                                    R^2 =  7.52096e-06
  Excitation energy:                                             315.932487 eV
  Excited state 16 (A)                                         [not converged]
  Term symbol:  17 (-) A                                    R^2 =  2.55783e-05
  Excitation energy:                                             317.008375 eV
  Excited state 17 (A)                                         [not converged]
  Term symbol:  18 (-) A                                    R^2 =  1.77199e-04
  Excitation energy:                                             328.638144 eV
  Excited state 18 (A)                                         [not converged]
  Term symbol:  19 (-) A                                    R^2 =  5.41068e-06
  Excitation energy:                                             328.674976 eV
  Excited state 19 (A)                                         [not converged]
  Term symbol:  20 (-) A                                    R^2 =  2.17538e-01
  Excitation energy:                                             330.158562 eV
  Excited state 20 (A)                                         [not converged]
  Term symbol:  21 (-) A                                    R^2 =  2.97996e-05
  Excitation energy:                                             331.392006 eV

                    Orbital Energies (a.u.)
 --------------------------------------------------------------

 Alpha MOs
 -- Occupied --
-26.532 -26.523 -26.511 -26.056 -11.730  -1.964  -1.861  -1.823
 -1.289  -1.116  -1.032  -1.026  -0.973  -0.869  -0.855  -0.835
 -0.822  -0.803  -0.403  -0.403  -0.360

 Beta MOs
 -- Occupied --
-26.532 -26.523 -26.511 -26.056 -11.730  -1.964  -1.861  -1.823
 -1.289  -1.116  -1.032  -1.026  -0.973  -0.869  -0.855  -0.835
 -0.822  -0.803  -0.403  -0.403  -0.360

          Ground-State Mulliken Net Atomic Charges

     Atom                 Charge (a.u.)    Spin (a.u.)
  --------------------------------------------------------
      1 C                     1.087035       0.000000
      2 F                    -0.058807       0.000000
      3 F                    -0.187581       0.000000
      4 F                    -0.705943       0.000000
      5 F                    -0.134704       0.000000
  --------------------------------------------------------
  Sum of atomic charges =     0.000000

                    Cartesian Multipole Moments
 -----------------------------------------------------------------
    Charge (ESU x 10^10)
                 0.0000
    Dipole Moment (Debye)
         X       2.1188      Y       8.1239      Z      -2.6071
       Tot       8.7911
    Quadrupole Moments (Debye-Ang)
        XX     -26.4690     XY      -3.7790     YY       1.0259
        XZ       2.7926     YZ      -2.0568     ZZ     -24.4758

 Total job time:  2027.84s(wall), 3325.55s(cpu)
        *  Thank you very much for using Q-Chem.  Have a nice day.  *
