 Q-Chem 4.3, Q-Chem, Inc., Pleasanton, CA (2015)
 Q-Chem 4.3.0 for Intel X86 Linux

User input:
--------------------------------------------------------------
$comment
XAS calculation for the 2b valence excited for water using cvs-adc(2)-x + 6-311+G* basis set
job 1 - determination of HF orbitals
$end

$molecule
0 1
6  -0.562563  2.684803  -0.106102
9  0.693844  2.606456  -0.111061
9  -1.041123  3.506512  0.678616
9  -1.503887  0.23697  0.837515
9  -1.030947  2.837606  -1.339146
$end

$rem
jobtype      sp
sym_ignore true
exchange     hf
basis        6-31G*
unrestricted true
$end

--------------------------------------------------------------

   12    -435.3576924568      7.10E-06 Convergence criterion met
 Total energy in the final basis set = -435.3576924568
 Total job time:  2.87s(wall), 16.44s(cpu)
        *  Thank you very much for using Q-Chem.  Have a nice day.  *
 Q-Chem 4.3, Q-Chem, Inc., Pleasanton, CA (2015)
 Q-Chem 4.3.0 for Intel X86 Linux

User input:
--------------------------------------------------------------

$comment
job3 - cvs-adc(2) calculation
$end

$molecule
read
$end

$rem
mem_total 3000
mem_static 1500
sym_ignore true
scf_guess read
method cvs-adc(2)
basis 6-31G*
ee_singlets 20
cc_rest_occ 5                  !only excitations from the lowest N orbitals
unrestricted  true
max_scf_cycles 200
$end
--------------------------------------------------------------

             Standard Nuclear Orientation (Angstroms)
    I     Atom           X                Y                Z
 ----------------------------------------------------------------
    1      C      -0.5625630000     2.6848030000    -0.1061020000
    2      F       0.6938440000     2.6064560000    -0.1110610000
    3      F      -1.0411230000     3.5065120000     0.6786160000
    4      F      -1.5038870000     0.2369700000     0.8375150000
    5      F      -1.0309470000     2.8376060000    -1.3391460000
 ----------------------------------------------------------------

    8    -435.3576929407      8.75E-09 Convergence criterion met
 Total energy in the final basis set = -435.3576929407
  Term symbol:  2 (-) A                                     R^2 =  5.11310e-14
  Excitation energy:                                             294.042869 eV
  Term symbol:  3 (-) A                                     R^2 =  2.21959e-14
  Excitation energy:                                             295.854433 eV
  Term symbol:  4 (-) A                                     R^2 =  1.92708e-14
  Excitation energy:                                             301.671076 eV
  Term symbol:  5 (-) A                                     R^2 =  2.58052e-14
  Excitation energy:                                             303.439464 eV
  Term symbol:  6 (-) A                                     R^2 =  2.64335e-14
  Excitation energy:                                             303.749014 eV
  Term symbol:  7 (-) A                                     R^2 =  2.90587e-14
  Excitation energy:                                             304.129021 eV
  Term symbol:  8 (-) A                                     R^2 =  2.37655e-14
  Excitation energy:                                             305.461480 eV
  Term symbol:  9 (-) A                                     R^2 =  2.44589e-14
  Excitation energy:                                             306.046301 eV
  Term symbol:  10 (-) A                                    R^2 =  5.35131e-14
  Excitation energy:                                             313.290907 eV
  Excited state 10 (A)                                             [converged]
  Term symbol:  11 (-) A                                    R^2 =  1.03552e-13
  Excitation energy:                                             313.718330 eV
  Excited state 11 (A)                                             [converged]
  Term symbol:  12 (-) A                                    R^2 =  8.63560e-14
  Excitation energy:                                             313.814974 eV
  Excited state 12 (A)                                             [converged]
  Term symbol:  13 (-) A                                    R^2 =  1.95650e-13
  Excitation energy:                                             314.042026 eV
  Excited state 13 (A)                                             [converged]
  Term symbol:  14 (-) A                                    R^2 =  1.64448e-13
  Excitation energy:                                             314.221759 eV
  Excited state 14 (A)                                             [converged]
  Term symbol:  15 (-) A                                    R^2 =  1.44010e-13
  Excitation energy:                                             314.232106 eV
  Excited state 15 (A)                                             [converged]
  Term symbol:  16 (-) A                                    R^2 =  1.31517e-13
  Excitation energy:                                             314.388876 eV
  Excited state 16 (A)                                             [converged]
  Term symbol:  17 (-) A                                    R^2 =  2.59358e-13
  Excitation energy:                                             315.424023 eV
  Excited state 17 (A)                                             [converged]
  Term symbol:  18 (-) A                                    R^2 =  7.48592e-13
  Excitation energy:                                             326.135422 eV
  Excited state 18 (A)                                             [converged]
  Term symbol:  19 (-) A                                    R^2 =  7.58864e-13
  Excitation energy:                                             326.225268 eV
  Excited state 19 (A)                                         [not converged]
  Term symbol:  20 (-) A                                    R^2 =  2.14692e-03
  Excitation energy:                                             331.152258 eV
  Excited state 20 (A)                                         [not converged]
  Term symbol:  21 (-) A                                    R^2 =  5.07121e-03
  Excitation energy:                                             331.288242 eV

                    Orbital Energies (a.u.)
 --------------------------------------------------------------

 Alpha MOs
 -- Occupied --
-26.516 -26.506 -26.478 -26.128 -11.720  -1.911  -1.818  -1.767
 -1.342  -1.093  -0.989  -0.978  -0.931  -0.840  -0.824  -0.810
 -0.788  -0.776  -0.461  -0.460  -0.383

 Beta MOs
 -- Occupied --
-26.516 -26.506 -26.478 -26.128 -11.720  -1.911  -1.818  -1.767
 -1.342  -1.093  -0.989  -0.978  -0.931  -0.840  -0.824  -0.810
 -0.788  -0.776  -0.461  -0.460  -0.383

          Ground-State Mulliken Net Atomic Charges

     Atom                 Charge (a.u.)    Spin (a.u.)
  --------------------------------------------------------
      1 C                     1.131482       0.000000
      2 F                    -0.173200       0.000000
      3 F                    -0.141477       0.000000
      4 F                    -0.575022       0.000000
      5 F                    -0.241783       0.000000
  --------------------------------------------------------
  Sum of atomic charges =     0.000000

                    Cartesian Multipole Moments
 -----------------------------------------------------------------
    Charge (ESU x 10^10)
                 0.0000
    Dipole Moment (Debye)
         X       2.5757      Y       6.5419      Z      -2.1123
       Tot       7.3412
    Quadrupole Moments (Debye-Ang)
        XX     -28.7548     XY      -2.6916     YY      -3.6998
        XZ       3.0298     YZ      -0.3284     ZZ     -25.6901

 Total job time:  2040.51s(wall), 3312.94s(cpu)
        *  Thank you very much for using Q-Chem.  Have a nice day.  *
