 Q-Chem 4.3, Q-Chem, Inc., Pleasanton, CA (2015)
 Q-Chem 4.3.0 for Intel X86 Linux

User input:
--------------------------------------------------------------
$comment
XAS calculation for the 2b valence excited for water using cvs-adc(2)-x + 6-311+G* basis set
job 1 - determination of HF orbitals
$end

$molecule
0 1
6  -0.589343  2.664023  -0.159462
9  0.650065  2.554461  -0.068516
9  -1.083631  3.595672  0.714366
9  -1.395274  0.22609  0.776058
9  -1.072997  2.841559  -1.310625
$end

$rem
jobtype      sp
sym_ignore true
exchange     hf
basis        6-31G*
unrestricted true
$end

--------------------------------------------------------------

   12    -435.3590804513      6.43E-06 Convergence criterion met
 Total energy in the final basis set = -435.3590804513
 Total job time:  3.30s(wall), 13.46s(cpu)
        *  Thank you very much for using Q-Chem.  Have a nice day.  *
 Q-Chem 4.3, Q-Chem, Inc., Pleasanton, CA (2015)
 Q-Chem 4.3.0 for Intel X86 Linux

User input:
--------------------------------------------------------------

$comment
job3 - cvs-adc(2) calculation
$end

$molecule
read
$end

$rem
mem_total 3000
mem_static 1500
sym_ignore true
scf_guess read
method cvs-adc(2)
basis 6-31G*
ee_singlets 20
cc_rest_occ 5                  !only excitations from the lowest N orbitals
unrestricted  true
max_scf_cycles 200
$end
--------------------------------------------------------------

             Standard Nuclear Orientation (Angstroms)
    I     Atom           X                Y                Z
 ----------------------------------------------------------------
    1      C      -0.5893430000     2.6640230000    -0.1594620000
    2      F       0.6500650000     2.5544610000    -0.0685160000
    3      F      -1.0836310000     3.5956720000     0.7143660000
    4      F      -1.3952740000     0.2260900000     0.7760580000
    5      F      -1.0729970000     2.8415590000    -1.3106250000
 ----------------------------------------------------------------

    8    -435.3590809419      8.77E-09 Convergence criterion met
 Total energy in the final basis set = -435.3590809419
  Term symbol:  2 (-) A                                     R^2 =  1.01935e-11
  Excitation energy:                                             294.088652 eV
  Term symbol:  3 (-) A                                     R^2 =  2.31393e-12
  Excitation energy:                                             295.886758 eV
  Term symbol:  4 (-) A                                     R^2 =  4.87592e-13
  Excitation energy:                                             300.808517 eV
  Term symbol:  5 (-) A                                     R^2 =  6.86373e-13
  Excitation energy:                                             302.885570 eV
  Term symbol:  6 (-) A                                     R^2 =  6.57786e-12
  Excitation energy:                                             303.196543 eV
  Term symbol:  7 (-) A                                     R^2 =  1.05423e-13
  Excitation energy:                                             303.724328 eV
  Term symbol:  8 (-) A                                     R^2 =  1.31444e-11
  Excitation energy:                                             305.171247 eV
  Term symbol:  9 (-) A                                     R^2 =  2.83483e-12
  Excitation energy:                                             305.697181 eV
  Term symbol:  10 (-) A                                    R^2 =  3.93853e-12
  Excitation energy:                                             313.325387 eV
  Excited state 10 (A)                                             [converged]
  Term symbol:  11 (-) A                                    R^2 =  5.92850e-12
  Excitation energy:                                             313.854749 eV
  Excited state 11 (A)                                             [converged]
  Term symbol:  12 (-) A                                    R^2 =  1.10263e-12
  Excitation energy:                                             313.981748 eV
  Excited state 12 (A)                                             [converged]
  Term symbol:  13 (-) A                                    R^2 =  1.17155e-12
  Excitation energy:                                             314.083181 eV
  Excited state 13 (A)                                             [converged]
  Term symbol:  14 (-) A                                    R^2 =  9.59942e-13
  Excitation energy:                                             314.411464 eV
  Excited state 14 (A)                                             [converged]
  Term symbol:  15 (-) A                                    R^2 =  5.22415e-12
  Excitation energy:                                             314.487252 eV
  Excited state 15 (A)                                             [converged]
  Term symbol:  16 (-) A                                    R^2 =  1.86067e-12
  Excitation energy:                                             314.517793 eV
  Excited state 16 (A)                                             [converged]
  Term symbol:  17 (-) A                                    R^2 =  1.06156e-10
  Excitation energy:                                             315.612438 eV
  Excited state 17 (A)                                             [converged]
  Term symbol:  18 (-) A                                    R^2 =  1.26420e-08
  Excitation energy:                                             326.466284 eV
  Excited state 18 (A)                                             [converged]
  Term symbol:  19 (-) A                                    R^2 =  6.59039e-09
  Excitation energy:                                             326.559318 eV
  Excited state 19 (A)                                         [not converged]
  Term symbol:  20 (-) A                                    R^2 =  7.15871e-03
  Excitation energy:                                             331.142994 eV
  Excited state 20 (A)                                         [not converged]
  Term symbol:  21 (-) A                                    R^2 =  9.42736e-03
  Excitation energy:                                             331.269033 eV

                    Orbital Energies (a.u.)
 --------------------------------------------------------------

 Alpha MOs
 -- Occupied --
-26.512 -26.510 -26.465 -26.140 -11.721  -1.897  -1.815  -1.742
 -1.352  -1.087  -0.981  -0.963  -0.921  -0.836  -0.811  -0.809
 -0.776  -0.768  -0.470  -0.470  -0.392

 Beta MOs
 -- Occupied --
-26.512 -26.510 -26.465 -26.140 -11.721  -1.897  -1.815  -1.742
 -1.352  -1.087  -0.981  -0.963  -0.921  -0.836  -0.811  -0.809
 -0.776  -0.768  -0.470  -0.470  -0.392

          Ground-State Mulliken Net Atomic Charges

     Atom                 Charge (a.u.)    Spin (a.u.)
  --------------------------------------------------------
      1 C                     1.150178       0.000000
      2 F                    -0.152870       0.000000
      3 F                    -0.268412       0.000000
      4 F                    -0.557237       0.000000
      5 F                    -0.171659       0.000000
  --------------------------------------------------------
  Sum of atomic charges =     0.000000

                    Cartesian Multipole Moments
 -----------------------------------------------------------------
    Charge (ESU x 10^10)
                 0.0000
    Dipole Moment (Debye)
         X       2.3390      Y       5.9567      Z      -2.7817
       Tot       6.9779
    Quadrupole Moments (Debye-Ang)
        XX     -27.8809     XY      -1.9746     YY      -6.8629
        XZ       3.2892     YZ      -2.9617     ZZ     -25.0952

 Total job time:  1975.47s(wall), 3265.94s(cpu)
        *  Thank you very much for using Q-Chem.  Have a nice day.  *
