 Q-Chem 4.3, Q-Chem, Inc., Pleasanton, CA (2015)
 Q-Chem 4.3.0 for Intel X86 Linux

User input:
--------------------------------------------------------------
$comment
XAS calculation for the 2b valence excited for water using cvs-adc(2)-x + 6-311+G* basis set
job 1 - determination of HF orbitals
$end

$molecule
0 1
6  -0.531458  2.984271  -0.205936
9  0.494586  2.294697  0.048785
9  -1.106388  3.485232  0.726672
9  -1.147524  0.558947  0.566484
9  -1.149216  2.660629  -1.207832
$end

$rem
jobtype      sp
sym_ignore true
exchange     hf
basis        6-31G*
unrestricted true
$end

--------------------------------------------------------------

   12    -435.3597113014      3.64E-06 Convergence criterion met
 Total energy in the final basis set = -435.3597113014
 Total job time:  3.28s(wall), 12.51s(cpu)
        *  Thank you very much for using Q-Chem.  Have a nice day.  *
 Q-Chem 4.3, Q-Chem, Inc., Pleasanton, CA (2015)
 Q-Chem 4.3.0 for Intel X86 Linux

User input:
--------------------------------------------------------------

$comment
job3 - cvs-adc(2) calculation
$end

$molecule
read
$end

$rem
mem_total 3000
mem_static 1500
sym_ignore true
scf_guess read
method cvs-adc(2)
basis 6-31G*
ee_singlets 20
cc_rest_occ 5                  !only excitations from the lowest N orbitals
unrestricted  true
max_scf_cycles 200
$end
--------------------------------------------------------------

             Standard Nuclear Orientation (Angstroms)
    I     Atom           X                Y                Z
 ----------------------------------------------------------------
    1      C      -0.5314580000     2.9842710000    -0.2059360000
    2      F       0.4945860000     2.2946970000     0.0487850000
    3      F      -1.1063880000     3.4852320000     0.7266720000
    4      F      -1.1475240000     0.5589470000     0.5664840000
    5      F      -1.1492160000     2.6606290000    -1.2078320000
 ----------------------------------------------------------------

    8    -435.3597114491      3.84E-09 Convergence criterion met
 Total energy in the final basis set = -435.3597114491
  Term symbol:  2 (-) A                                     R^2 =  4.62635e-13
  Excitation energy:                                             293.691584 eV
  Term symbol:  3 (-) A                                     R^2 =  4.65436e-13
  Excitation energy:                                             295.528448 eV
  Term symbol:  4 (-) A                                     R^2 =  6.16799e-13
  Excitation energy:                                             303.780176 eV
  Term symbol:  5 (-) A                                     R^2 =  4.98723e-13
  Excitation energy:                                             304.522037 eV
  Term symbol:  6 (-) A                                     R^2 =  9.11596e-13
  Excitation energy:                                             305.686023 eV
  Term symbol:  7 (-) A                                     R^2 =  2.01425e-13
  Excitation energy:                                             305.735582 eV
  Term symbol:  8 (-) A                                     R^2 =  4.09746e-13
  Excitation energy:                                             306.503940 eV
  Term symbol:  9 (-) A                                     R^2 =  5.74679e-13
  Excitation energy:                                             307.783314 eV
  Term symbol:  10 (-) A                                    R^2 =  9.12993e-13
  Excitation energy:                                             312.437262 eV
  Excited state 10 (A)                                             [converged]
  Term symbol:  11 (-) A                                    R^2 =  8.72048e-13
  Excitation energy:                                             313.965167 eV
  Excited state 11 (A)                                             [converged]
  Term symbol:  12 (-) A                                    R^2 =  6.86041e-13
  Excitation energy:                                             314.242505 eV
  Excited state 12 (A)                                             [converged]
  Term symbol:  13 (-) A                                    R^2 =  9.03208e-13
  Excitation energy:                                             314.556145 eV
  Excited state 13 (A)                                             [converged]
  Term symbol:  14 (-) A                                    R^2 =  1.57435e-12
  Excitation energy:                                             314.695595 eV
  Excited state 14 (A)                                             [converged]
  Term symbol:  15 (-) A                                    R^2 =  1.01067e-12
  Excitation energy:                                             315.048263 eV
  Excited state 15 (A)                                             [converged]
  Term symbol:  16 (-) A                                    R^2 =  1.21773e-10
  Excitation energy:                                             318.122021 eV
  Excited state 16 (A)                                             [converged]
  Term symbol:  17 (-) A                                    R^2 =  8.89221e-13
  Excitation energy:                                             318.820793 eV
  Excited state 17 (A)                                             [converged]
  Term symbol:  18 (-) A                                    R^2 =  7.25833e-09
  Excitation energy:                                             331.894139 eV
  Excited state 18 (A)                                             [converged]
  Term symbol:  19 (-) A                                    R^2 =  4.59245e-08
  Excitation energy:                                             332.061011 eV
  Excited state 19 (A)                                             [converged]
  Term symbol:  20 (-) A                                    R^2 =  4.23783e-07
  Excitation energy:                                             332.338437 eV
  Excited state 20 (A)                                             [converged]
  Term symbol:  21 (-) A                                    R^2 =  7.58700e-07
  Excitation energy:                                             332.455767 eV

                    Orbital Energies (a.u.)
 --------------------------------------------------------------

 Alpha MOs
 -- Occupied --
-26.561 -26.546 -26.514 -25.949 -11.752  -1.966  -1.874  -1.823
 -1.210  -1.127  -1.043  -1.028  -0.980  -0.871  -0.863  -0.852
 -0.816  -0.810  -0.319  -0.317  -0.316

 Beta MOs
 -- Occupied --
-26.561 -26.546 -26.514 -25.949 -11.752  -1.966  -1.874  -1.823
 -1.210  -1.127  -1.043  -1.028  -0.980  -0.871  -0.863  -0.852
 -0.816  -0.810  -0.319  -0.317  -0.316

          Ground-State Mulliken Net Atomic Charges

     Atom                 Charge (a.u.)    Spin (a.u.)
  --------------------------------------------------------
      1 C                     1.170907       0.000000
      2 F                    -0.110627       0.000000
      3 F                    -0.081148       0.000000
      4 F                    -0.888003       0.000000
      5 F                    -0.091129       0.000000
  --------------------------------------------------------
  Sum of atomic charges =     0.000000

                    Cartesian Multipole Moments
 -----------------------------------------------------------------
    Charge (ESU x 10^10)
                 0.0000
    Dipole Moment (Debye)
         X       2.5540      Y      10.3976      Z      -3.2917
       Tot      11.2013
    Quadrupole Moments (Debye-Ang)
        XX     -26.9630     XY      -3.9875     YY      15.3721
        XZ       3.1178     YZ      -4.2758     ZZ     -23.6500

 Total job time:  1933.53s(wall), 3168.60s(cpu)
        *  Thank you very much for using Q-Chem.  Have a nice day.  *
