 Q-Chem 4.3, Q-Chem, Inc., Pleasanton, CA (2015)
 Q-Chem 4.3.0 for Intel X86 Linux

User input:
--------------------------------------------------------------
$comment
XAS calculation for the 2b valence excited for water using cvs-adc(2)-x + 6-311+G* basis set
job 1 - determination of HF orbitals
$end

$molecule
0 1
6  -0.471225  2.987482  -0.242768
9  0.678316  2.393845  -0.042216
9  -1.125816  3.157022  0.778699
9  -1.386432  0.875094  0.646205
9  -1.093395  2.559039  -1.231487
$end

$rem
jobtype      sp
sym_ignore true
exchange     hf
basis        6-31G*
unrestricted true
$end

--------------------------------------------------------------

   13    -435.3357006352      8.13E-06 Convergence criterion met
 Total energy in the final basis set = -435.3357006352
 Total job time:  3.59s(wall), 15.14s(cpu)
        *  Thank you very much for using Q-Chem.  Have a nice day.  *
 Q-Chem 4.3, Q-Chem, Inc., Pleasanton, CA (2015)
 Q-Chem 4.3.0 for Intel X86 Linux

User input:
--------------------------------------------------------------

$comment
job3 - cvs-adc(2) calculation
$end

$molecule
read
$end

$rem
mem_total 3000
mem_static 1500
sym_ignore true
scf_guess read
method cvs-adc(2)
basis 6-31G*
ee_singlets 20
cc_rest_occ 5                  !only excitations from the lowest N orbitals
unrestricted  true
max_scf_cycles 200
$end
--------------------------------------------------------------

             Standard Nuclear Orientation (Angstroms)
    I     Atom           X                Y                Z
 ----------------------------------------------------------------
    1      C      -0.4712250000     2.9874820000    -0.2427680000
    2      F       0.6783160000     2.3938450000    -0.0422160000
    3      F      -1.1258160000     3.1570220000     0.7786990000
    4      F      -1.3864320000     0.8750940000     0.6462050000
    5      F      -1.0933950000     2.5590390000    -1.2314870000
 ----------------------------------------------------------------

   10    -435.3357013793      7.66E-09 Convergence criterion met
 Total energy in the final basis set = -435.3357013793
  Term symbol:  2 (-) A                                     R^2 =  1.10843e-13
  Excitation energy:                                             292.965497 eV
  Term symbol:  3 (-) A                                     R^2 =  3.96316e-13
  Excitation energy:                                             294.701046 eV
  Term symbol:  4 (-) A                                     R^2 =  2.18369e-13
  Excitation energy:                                             302.324553 eV
  Term symbol:  5 (-) A                                     R^2 =  3.93014e-13
  Excitation energy:                                             303.993743 eV
  Term symbol:  6 (-) A                                     R^2 =  2.15856e-13
  Excitation energy:                                             304.421701 eV
  Term symbol:  7 (-) A                                     R^2 =  2.91484e-13
  Excitation energy:                                             304.612697 eV
  Term symbol:  8 (-) A                                     R^2 =  7.74055e-13
  Excitation energy:                                             305.999461 eV
  Term symbol:  9 (-) A                                     R^2 =  4.91127e-13
  Excitation energy:                                             306.569708 eV
  Term symbol:  10 (-) A                                    R^2 =  3.88566e-13
  Excitation energy:                                             312.056423 eV
  Excited state 10 (A)                                             [converged]
  Term symbol:  11 (-) A                                    R^2 =  1.14320e-12
  Excitation energy:                                             313.526670 eV
  Excited state 11 (A)                                             [converged]
  Term symbol:  12 (-) A                                    R^2 =  4.52090e-13
  Excitation energy:                                             313.672208 eV
  Excited state 12 (A)                                             [converged]
  Term symbol:  13 (-) A                                    R^2 =  6.88308e-13
  Excitation energy:                                             313.733820 eV
  Excited state 13 (A)                                             [converged]
  Term symbol:  14 (-) A                                    R^2 =  4.51336e-13
  Excitation energy:                                             314.177358 eV
  Excited state 14 (A)                                             [converged]
  Term symbol:  15 (-) A                                    R^2 =  5.49006e-13
  Excitation energy:                                             314.336853 eV
  Excited state 15 (A)                                             [converged]
  Term symbol:  16 (-) A                                    R^2 =  1.77784e-12
  Excitation energy:                                             318.741466 eV
  Excited state 16 (A)                                             [converged]
  Term symbol:  17 (-) A                                    R^2 =  1.06227e-11
  Excitation energy:                                             319.289394 eV
  Excited state 17 (A)                                         [not converged]
  Term symbol:  18 (-) A                                    R^2 =  1.03445e-05
  Excitation energy:                                             323.257570 eV
  Excited state 18 (A)                                             [converged]
  Term symbol:  19 (-) A                                    R^2 =  5.51019e-08
  Excitation energy:                                             323.268721 eV
  Excited state 19 (A)                                         [not converged]
  Term symbol:  20 (-) A                                    R^2 =  1.83366e-02
  Excitation energy:                                             323.615798 eV
  Excited state 20 (A)                                             [converged]
  Term symbol:  21 (-) A                                    R^2 =  3.72752e-07
  Excitation energy:                                             323.616597 eV

                    Orbital Energies (a.u.)
 --------------------------------------------------------------

 Alpha MOs
 -- Occupied --
-26.532 -26.527 -26.503 -25.977 -11.735  -1.924  -1.832  -1.790
 -1.238  -1.101  -1.003  -0.996  -0.940  -0.844  -0.834  -0.813
 -0.799  -0.792  -0.345  -0.345  -0.332

 Beta MOs
 -- Occupied --
-26.532 -26.527 -26.503 -25.977 -11.735  -1.924  -1.832  -1.790
 -1.238  -1.101  -1.003  -0.996  -0.940  -0.844  -0.834  -0.813
 -0.799  -0.792  -0.345  -0.345  -0.332

          Ground-State Mulliken Net Atomic Charges

     Atom                 Charge (a.u.)    Spin (a.u.)
  --------------------------------------------------------
      1 C                     1.209978       0.000000
      2 F                    -0.186372       0.000000
      3 F                    -0.056778       0.000000
      4 F                    -0.854284       0.000000
      5 F                    -0.112544       0.000000
  --------------------------------------------------------
  Sum of atomic charges =     0.000000

                    Cartesian Multipole Moments
 -----------------------------------------------------------------
    Charge (ESU x 10^10)
                 0.0000
    Dipole Moment (Debye)
         X       3.3287      Y       8.7433      Z      -3.4935
       Tot       9.9865
    Quadrupole Moments (Debye-Ang)
        XX     -29.4787     XY      -1.5789     YY      12.2063
        XZ       3.8686     YZ      -5.2449     ZZ     -24.0580

 Total job time:  1964.51s(wall), 3244.02s(cpu)
        *  Thank you very much for using Q-Chem.  Have a nice day.  *
