 Q-Chem 4.3, Q-Chem, Inc., Pleasanton, CA (2015)
 Q-Chem 4.3.0 for Intel X86 Linux

User input:
--------------------------------------------------------------
$comment
XAS calculation for the 2b valence excited for water using cvs-adc(2)-x + 6-311+G* basis set
job 1 - determination of HF orbitals
$end

$molecule
0 1
6  -0.519339  2.659005  -0.168994
9  0.774129  2.686876  -0.170972
9  -1.037963  3.289643  0.709068
9  -1.666319  0.429392  0.895119
9  -0.965316  2.785133  -1.328018
$end

$rem
jobtype      sp
sym_ignore true
exchange     hf
basis        6-31G*
unrestricted true
$end

--------------------------------------------------------------

   11    -435.3716238135      6.65E-06 Convergence criterion met
 Total energy in the final basis set = -435.3716238135
 Total job time:  2.93s(wall), 12.92s(cpu)
        *  Thank you very much for using Q-Chem.  Have a nice day.  *
 Q-Chem 4.3, Q-Chem, Inc., Pleasanton, CA (2015)
 Q-Chem 4.3.0 for Intel X86 Linux

User input:
--------------------------------------------------------------

$comment
job3 - cvs-adc(2) calculation
$end

$molecule
read
$end

$rem
mem_total 3000
mem_static 1500
sym_ignore true
scf_guess read
method cvs-adc(2)
basis 6-31G*
ee_singlets 20
cc_rest_occ 5                  !only excitations from the lowest N orbitals
unrestricted  true
max_scf_cycles 200
$end
--------------------------------------------------------------

             Standard Nuclear Orientation (Angstroms)
    I     Atom           X                Y                Z
 ----------------------------------------------------------------
    1      C      -0.5193390000     2.6590050000    -0.1689940000
    2      F       0.7741290000     2.6868760000    -0.1709720000
    3      F      -1.0379630000     3.2896430000     0.7090680000
    4      F      -1.6663190000     0.4293920000     0.8951190000
    5      F      -0.9653160000     2.7851330000    -1.3280180000
 ----------------------------------------------------------------

    8    -435.3716243595      8.47E-09 Convergence criterion met
 Total energy in the final basis set = -435.3716243595
  Term symbol:  2 (-) A                                     R^2 =  5.31228e-13
  Excitation energy:                                             294.195271 eV
  Term symbol:  3 (-) A                                     R^2 =  2.57495e-13
  Excitation energy:                                             296.095419 eV
  Term symbol:  4 (-) A                                     R^2 =  1.32936e-12
  Excitation energy:                                             302.598541 eV
  Term symbol:  5 (-) A                                     R^2 =  1.66470e-12
  Excitation energy:                                             303.856777 eV
  Term symbol:  6 (-) A                                     R^2 =  3.74465e-12
  Excitation energy:                                             304.715170 eV
  Term symbol:  7 (-) A                                     R^2 =  1.16001e-12
  Excitation energy:                                             305.403580 eV
  Term symbol:  8 (-) A                                     R^2 =  1.30143e-12
  Excitation energy:                                             305.821738 eV
  Term symbol:  9 (-) A                                     R^2 =  1.93916e-12
  Excitation energy:                                             307.277498 eV
  Term symbol:  10 (-) A                                    R^2 =  9.37068e-13
  Excitation energy:                                             313.186807 eV
  Excited state 10 (A)                                             [converged]
  Term symbol:  11 (-) A                                    R^2 =  1.69258e-13
  Excitation energy:                                             313.954148 eV
  Excited state 11 (A)                                             [converged]
  Term symbol:  12 (-) A                                    R^2 =  7.18695e-13
  Excitation energy:                                             314.062926 eV
  Excited state 12 (A)                                             [converged]
  Term symbol:  13 (-) A                                    R^2 =  5.98656e-13
  Excitation energy:                                             314.085135 eV
  Excited state 13 (A)                                             [converged]
  Term symbol:  14 (-) A                                    R^2 =  7.19661e-13
  Excitation energy:                                             314.495063 eV
  Excited state 14 (A)                                             [converged]
  Term symbol:  15 (-) A                                    R^2 =  5.70781e-13
  Excitation energy:                                             314.666424 eV
  Excited state 15 (A)                                             [converged]
  Term symbol:  16 (-) A                                    R^2 =  4.81538e-13
  Excitation energy:                                             315.251039 eV
  Excited state 16 (A)                                             [converged]
  Term symbol:  17 (-) A                                    R^2 =  1.16061e-12
  Excitation energy:                                             316.322474 eV
  Excited state 17 (A)                                             [converged]
  Term symbol:  18 (-) A                                    R^2 =  2.79382e-11
  Excitation energy:                                             327.318422 eV
  Excited state 18 (A)                                             [converged]
  Term symbol:  19 (-) A                                    R^2 =  1.13287e-10
  Excitation energy:                                             327.378119 eV
  Excited state 19 (A)                                         [not converged]
  Term symbol:  20 (-) A                                    R^2 =  3.08099e-01
  Excitation energy:                                             329.670888 eV
  Excited state 20 (A)                                         [not converged]
  Term symbol:  21 (-) A                                    R^2 =  5.56075e-06
  Excitation energy:                                             331.262039 eV

                    Orbital Energies (a.u.)
 --------------------------------------------------------------

 Alpha MOs
 -- Occupied --
-26.524 -26.512 -26.496 -26.091 -11.726  -1.937  -1.838  -1.795
 -1.315  -1.104  -1.011  -1.001  -0.951  -0.855  -0.839  -0.822
 -0.806  -0.790  -0.431  -0.431  -0.373

 Beta MOs
 -- Occupied --
-26.524 -26.512 -26.496 -26.091 -11.726  -1.937  -1.838  -1.795
 -1.315  -1.104  -1.011  -1.001  -0.951  -0.855  -0.839  -0.822
 -0.806  -0.790  -0.431  -0.431  -0.373

          Ground-State Mulliken Net Atomic Charges

     Atom                 Charge (a.u.)    Spin (a.u.)
  --------------------------------------------------------
      1 C                     1.113635       0.000000
      2 F                    -0.217076       0.000000
      3 F                    -0.090189       0.000000
      4 F                    -0.643160       0.000000
      5 F                    -0.163210       0.000000
  --------------------------------------------------------
  Sum of atomic charges =     0.000000

                    Cartesian Multipole Moments
 -----------------------------------------------------------------
    Charge (ESU x 10^10)
                 0.0000
    Dipole Moment (Debye)
         X       3.1284      Y       6.7450      Z      -3.0199
       Tot       8.0251
    Quadrupole Moments (Debye-Ang)
        XX     -30.7536     XY      -2.7524     YY      -1.6727
        XZ       4.5277     YZ      -2.1438     ZZ     -25.5335

 Total job time:  1957.17s(wall), 3170.66s(cpu)
        *  Thank you very much for using Q-Chem.  Have a nice day.  *
