 Q-Chem 4.3, Q-Chem, Inc., Pleasanton, CA (2015)
 Q-Chem 4.3.0 for Intel X86 Linux

User input:
--------------------------------------------------------------
$comment
XAS calculation for the 2b valence excited for water using cvs-adc(2)-x + 6-311+G* basis set
job 1 - determination of HF orbitals
$end

$molecule
0 1
6  -0.610061  2.86915  -0.142409
9  0.492191  2.362247  0.031004
9  -1.060144  3.57769  0.66625
9  -1.172311  0.378327  0.614542
9  -1.118521  2.753674  -1.217995
$end

$rem
jobtype      sp
sym_ignore true
exchange     hf
basis        6-31G*
unrestricted true
$end

--------------------------------------------------------------

    9    -435.3877351761      8.23E-06 Convergence criterion met
 Total energy in the final basis set = -435.3877351761
 Total job time:  2.50s(wall), 11.08s(cpu)
        *  Thank you very much for using Q-Chem.  Have a nice day.  *
 Q-Chem 4.3, Q-Chem, Inc., Pleasanton, CA (2015)
 Q-Chem 4.3.0 for Intel X86 Linux

User input:
--------------------------------------------------------------

$comment
job3 - cvs-adc(2) calculation
$end

$molecule
read
$end

$rem
mem_total 3000
mem_static 1500
sym_ignore true
scf_guess read
method cvs-adc(2)
basis 6-31G*
ee_singlets 20
cc_rest_occ 5                  !only excitations from the lowest N orbitals
unrestricted  true
max_scf_cycles 200
$end
--------------------------------------------------------------

             Standard Nuclear Orientation (Angstroms)
    I     Atom           X                Y                Z
 ----------------------------------------------------------------
    1      C      -0.6100610000     2.8691500000    -0.1424090000
    2      F       0.4921910000     2.3622470000     0.0310040000
    3      F      -1.0601440000     3.5776900000     0.6662500000
    4      F      -1.1723110000     0.3783270000     0.6145420000
    5      F      -1.1185210000     2.7536740000    -1.2179950000
 ----------------------------------------------------------------

    7    -435.3877355245      5.20E-09 Convergence criterion met
 Total energy in the final basis set = -435.3877355245
  Term symbol:  2 (-) A                                     R^2 =  6.92346e-14
  Excitation energy:                                             295.019221 eV
  Term symbol:  3 (-) A                                     R^2 =  2.18475e-13
  Excitation energy:                                             296.992086 eV
  Term symbol:  4 (-) A                                     R^2 =  1.69153e-13
  Excitation energy:                                             303.764482 eV
  Term symbol:  5 (-) A                                     R^2 =  9.62698e-14
  Excitation energy:                                             305.238309 eV
  Term symbol:  6 (-) A                                     R^2 =  1.44462e-13
  Excitation energy:                                             305.872248 eV
  Term symbol:  7 (-) A                                     R^2 =  1.00757e-13
  Excitation energy:                                             307.187474 eV
  Term symbol:  8 (-) A                                     R^2 =  1.80263e-13
  Excitation energy:                                             308.061149 eV
  Term symbol:  9 (-) A                                     R^2 =  9.94148e-14
  Excitation energy:                                             309.368715 eV
  Term symbol:  10 (-) A                                    R^2 =  1.61024e-13
  Excitation energy:                                             312.699618 eV
  Excited state 10 (A)                                             [converged]
  Term symbol:  11 (-) A                                    R^2 =  1.75652e-13
  Excitation energy:                                             314.123620 eV
  Excited state 11 (A)                                             [converged]
  Term symbol:  12 (-) A                                    R^2 =  3.66270e-13
  Excitation energy:                                             314.503135 eV
  Excited state 12 (A)                                             [converged]
  Term symbol:  13 (-) A                                    R^2 =  1.50798e-13
  Excitation energy:                                             314.942422 eV
  Excited state 13 (A)                                             [converged]
  Term symbol:  14 (-) A                                    R^2 =  3.13511e-13
  Excitation energy:                                             314.976704 eV
  Excited state 14 (A)                                             [converged]
  Term symbol:  15 (-) A                                    R^2 =  1.60440e-13
  Excitation energy:                                             315.422618 eV
  Excited state 15 (A)                                             [converged]
  Term symbol:  16 (-) A                                    R^2 =  7.62342e-13
  Excitation energy:                                             317.106836 eV
  Excited state 16 (A)                                             [converged]
  Term symbol:  17 (-) A                                    R^2 =  4.36999e-13
  Excitation energy:                                             318.043205 eV
  Excited state 17 (A)                                         [not converged]
  Term symbol:  18 (-) A                                    R^2 =  1.61921e-05
  Excitation energy:                                             330.957627 eV
  Excited state 18 (A)                                         [not converged]
  Term symbol:  19 (-) A                                    R^2 =  4.27642e-06
  Excitation energy:                                             330.963755 eV
  Excited state 19 (A)                                             [converged]
  Term symbol:  20 (-) A                                    R^2 =  2.25797e-09
  Excitation energy:                                             331.375794 eV
  Excited state 20 (A)                                         [not converged]
  Term symbol:  21 (-) A                                    R^2 =  2.72424e-05
  Excitation energy:                                             331.376124 eV

                    Orbital Energies (a.u.)
 --------------------------------------------------------------

 Alpha MOs
 -- Occupied --
-26.567 -26.544 -26.514 -25.987 -11.740  -1.998  -1.896  -1.848
 -1.236  -1.136  -1.063  -1.050  -1.004  -0.884  -0.878  -0.865
 -0.831  -0.817  -0.347  -0.347  -0.331

 Beta MOs
 -- Occupied --
-26.567 -26.544 -26.514 -25.987 -11.740  -1.998  -1.896  -1.848
 -1.236  -1.136  -1.063  -1.050  -1.004  -0.884  -0.878  -0.865
 -0.831  -0.817  -0.347  -0.347  -0.331

          Ground-State Mulliken Net Atomic Charges

     Atom                 Charge (a.u.)    Spin (a.u.)
  --------------------------------------------------------
      1 C                     1.086191       0.000000
      2 F                    -0.113614       0.000000
      3 F                    -0.057412       0.000000
      4 F                    -0.823097       0.000000
      5 F                    -0.092068       0.000000
  --------------------------------------------------------
  Sum of atomic charges =     0.000000

                    Cartesian Multipole Moments
 -----------------------------------------------------------------
    Charge (ESU x 10^10)
                 0.0000
    Dipole Moment (Debye)
         X       2.0633      Y       9.8902      Z      -2.8859
       Tot      10.5073
    Quadrupole Moments (Debye-Ang)
        XX     -26.4272     XY      -5.4253     YY      10.4938
        XZ       2.9991     YZ      -2.4621     ZZ     -23.9475

 Total job time:  2290.70s(wall), 3251.63s(cpu)
        *  Thank you very much for using Q-Chem.  Have a nice day.  *
