 Q-Chem 4.3, Q-Chem, Inc., Pleasanton, CA (2015)
 Q-Chem 4.3.0 for Intel X86 Linux

User input:
--------------------------------------------------------------
$comment
XAS calculation for the 2b valence excited for water using cvs-adc(2)-x + 6-311+G* basis set
job 1 - determination of HF orbitals
$end

$molecule
0 1
6  -0.545664  2.919853  -0.185949
9  0.555716  2.306634  0.02167
9  -1.15382  3.269984  0.786934
9  -1.191346  0.937015  0.515992
9  -1.150854  2.552126  -1.188351
$end

$rem
jobtype      sp
sym_ignore true
exchange     hf
basis        6-31G*
unrestricted true
$end

--------------------------------------------------------------

   12    -435.3777600961      1.91E-06 Convergence criterion met
 Total energy in the final basis set = -435.3777600961
 Total job time:  3.29s(wall), 14.71s(cpu)
        *  Thank you very much for using Q-Chem.  Have a nice day.  *
 Q-Chem 4.3, Q-Chem, Inc., Pleasanton, CA (2015)
 Q-Chem 4.3.0 for Intel X86 Linux

User input:
--------------------------------------------------------------

$comment
job3 - cvs-adc(2) calculation
$end

$molecule
read
$end

$rem
mem_total 3000
mem_static 1500
sym_ignore true
scf_guess read
method cvs-adc(2)
basis 6-31G*
ee_singlets 20
cc_rest_occ 5                  !only excitations from the lowest N orbitals
unrestricted  true
max_scf_cycles 200
$end
--------------------------------------------------------------

             Standard Nuclear Orientation (Angstroms)
    I     Atom           X                Y                Z
 ----------------------------------------------------------------
    1      C      -0.5456640000     2.9198530000    -0.1859490000
    2      F       0.5557160000     2.3066340000     0.0216700000
    3      F      -1.1538200000     3.2699840000     0.7869340000
    4      F      -1.1913460000     0.9370150000     0.5159920000
    5      F      -1.1508540000     2.5521260000    -1.1883510000
 ----------------------------------------------------------------

    7    -435.3777599768      8.17E-09 Convergence criterion met
 Total energy in the final basis set = -435.3777599768
  Term symbol:  2 (-) A                                     R^2 =  1.08847e-13
  Excitation energy:                                             293.414792 eV
  Term symbol:  3 (-) A                                     R^2 =  1.45444e-13
  Excitation energy:                                             295.235145 eV
  Term symbol:  4 (-) A                                     R^2 =  1.09925e-13
  Excitation energy:                                             303.563104 eV
  Term symbol:  5 (-) A                                     R^2 =  1.03165e-13
  Excitation energy:                                             304.659902 eV
  Term symbol:  6 (-) A                                     R^2 =  9.39182e-14
  Excitation energy:                                             305.705829 eV
  Term symbol:  7 (-) A                                     R^2 =  7.34909e-14
  Excitation energy:                                             305.727525 eV
  Term symbol:  8 (-) A                                     R^2 =  1.25961e-13
  Excitation energy:                                             306.649890 eV
  Term symbol:  9 (-) A                                     R^2 =  7.17764e-14
  Excitation energy:                                             307.713897 eV
  Term symbol:  10 (-) A                                    R^2 =  2.37407e-13
  Excitation energy:                                             312.033116 eV
  Excited state 10 (A)                                             [converged]
  Term symbol:  11 (-) A                                    R^2 =  2.59463e-13
  Excitation energy:                                             313.621538 eV
  Excited state 11 (A)                                             [converged]
  Term symbol:  12 (-) A                                    R^2 =  2.12179e-13
  Excitation energy:                                             314.080973 eV
  Excited state 12 (A)                                             [converged]
  Term symbol:  13 (-) A                                    R^2 =  4.16282e-13
  Excitation energy:                                             314.304295 eV
  Excited state 13 (A)                                             [converged]
  Term symbol:  14 (-) A                                    R^2 =  2.13358e-13
  Excitation energy:                                             314.541056 eV
  Excited state 14 (A)                                             [converged]
  Term symbol:  15 (-) A                                    R^2 =  3.08713e-13
  Excitation energy:                                             314.853909 eV
  Excited state 15 (A)                                             [converged]
  Term symbol:  16 (-) A                                    R^2 =  7.63046e-12
  Excitation energy:                                             320.335016 eV
  Excited state 16 (A)                                             [converged]
  Term symbol:  17 (-) A                                    R^2 =  3.14298e-13
  Excitation energy:                                             320.845156 eV
  Excited state 17 (A)                                             [converged]
  Term symbol:  18 (-) A                                    R^2 =  2.06333e-08
  Excitation energy:                                             331.676954 eV
  Excited state 18 (A)                                             [converged]
  Term symbol:  19 (-) A                                    R^2 =  1.40515e-07
  Excitation energy:                                             331.826906 eV
  Excited state 19 (A)                                             [converged]
  Term symbol:  20 (-) A                                    R^2 =  1.54697e-07
  Excitation energy:                                             332.007676 eV
  Excited state 20 (A)                                             [converged]
  Term symbol:  21 (-) A                                    R^2 =  7.27026e-07
  Excitation energy:                                             332.142849 eV

                    Orbital Energies (a.u.)
 --------------------------------------------------------------

 Alpha MOs
 -- Occupied --
-26.523 -26.508 -26.480 -25.988 -11.722  -1.930  -1.837  -1.786
 -1.259  -1.093  -1.007  -0.994  -0.941  -0.837  -0.828  -0.816
 -0.788  -0.778  -0.360  -0.360  -0.359

 Beta MOs
 -- Occupied --
-26.523 -26.508 -26.480 -25.988 -11.722  -1.930  -1.837  -1.786
 -1.259  -1.093  -1.007  -0.994  -0.941  -0.837  -0.828  -0.816
 -0.788  -0.778  -0.360  -0.360  -0.359

          Ground-State Mulliken Net Atomic Charges

     Atom                 Charge (a.u.)    Spin (a.u.)
  --------------------------------------------------------
      1 C                     1.215172       0.000000
      2 F                    -0.163540       0.000000
      3 F                    -0.081446       0.000000
      4 F                    -0.853717       0.000000
      5 F                    -0.116469       0.000000
  --------------------------------------------------------
  Sum of atomic charges =     0.000000

                    Cartesian Multipole Moments
 -----------------------------------------------------------------
    Charge (ESU x 10^10)
                 0.0000
    Dipole Moment (Debye)
         X       2.3796      Y       8.1922      Z      -2.7774
       Tot       8.9715
    Quadrupole Moments (Debye-Ang)
        XX     -27.2702     XY      -2.3508     YY      10.0072
        XZ       2.7186     YZ      -4.2739     ZZ     -23.6340

 Total job time:  1677.20s(wall), 2764.08s(cpu)
        *  Thank you very much for using Q-Chem.  Have a nice day.  *
