 Q-Chem 4.3, Q-Chem, Inc., Pleasanton, CA (2015)
 Q-Chem 4.3.0 for Intel X86 Linux

User input:
--------------------------------------------------------------
$comment
XAS calculation for the 2b valence excited for water using cvs-adc(2)-x + 6-311+G* basis set
job 1 - determination of HF orbitals
$end

$molecule
0 1
6  -0.372045  2.849013  -0.282921
9  0.724717  2.649951  -0.14682
9  -1.1033  3.122818  0.769319
9  -1.6314  0.695658  0.825632
9  -1.010891  2.666966  -1.268007
$end

$rem
jobtype      sp
sym_ignore true
exchange     hf
basis        6-31G*
unrestricted true
$end

--------------------------------------------------------------

   11    -435.3444400783      3.99E-06 Convergence criterion met
 Total energy in the final basis set = -435.3444400783
 Total job time:  2.96s(wall), 12.75s(cpu)
        *  Thank you very much for using Q-Chem.  Have a nice day.  *
 Q-Chem 4.3, Q-Chem, Inc., Pleasanton, CA (2015)
 Q-Chem 4.3.0 for Intel X86 Linux

User input:
--------------------------------------------------------------

$comment
job3 - cvs-adc(2) calculation
$end

$molecule
read
$end

$rem
mem_total 3000
mem_static 1500
sym_ignore true
scf_guess read
method cvs-adc(2)
basis 6-31G*
ee_singlets 20
cc_rest_occ 5                  !only excitations from the lowest N orbitals
unrestricted  true
max_scf_cycles 200
$end
--------------------------------------------------------------

             Standard Nuclear Orientation (Angstroms)
    I     Atom           X                Y                Z
 ----------------------------------------------------------------
    1      C      -0.3720450000     2.8490130000    -0.2829210000
    2      F       0.7247170000     2.6499510000    -0.1468200000
    3      F      -1.1033000000     3.1228180000     0.7693190000
    4      F      -1.6314000000     0.6956580000     0.8256320000
    5      F      -1.0108910000     2.6669660000    -1.2680070000
 ----------------------------------------------------------------

    6    -435.3444401548      6.11E-09 Convergence criterion met
 Total energy in the final basis set = -435.3444401548
  Term symbol:  2 (-) A                                     R^2 =  1.76624e-14
  Excitation energy:                                             294.697258 eV
  Term symbol:  3 (-) A                                     R^2 =  2.49288e-14
  Excitation energy:                                             296.599189 eV
  Term symbol:  4 (-) A                                     R^2 =  4.90863e-14
  Excitation energy:                                             302.697721 eV
  Term symbol:  5 (-) A                                     R^2 =  3.95802e-14
  Excitation energy:                                             304.636599 eV
  Term symbol:  6 (-) A                                     R^2 =  8.71378e-14
  Excitation energy:                                             304.885599 eV
  Term symbol:  7 (-) A                                     R^2 =  7.64058e-14
  Excitation energy:                                             306.590760 eV
  Term symbol:  8 (-) A                                     R^2 =  2.96589e-14
  Excitation energy:                                             308.636638 eV
  Term symbol:  9 (-) A                                     R^2 =  3.89438e-14
  Excitation energy:                                             310.587227 eV
  Term symbol:  10 (-) A                                    R^2 =  2.27990e-13
  Excitation energy:                                             312.824094 eV
  Excited state 10 (A)                                             [converged]
  Term symbol:  11 (-) A                                    R^2 =  6.82190e-14
  Excitation energy:                                             314.140461 eV
  Excited state 11 (A)                                             [converged]
  Term symbol:  12 (-) A                                    R^2 =  5.50701e-14
  Excitation energy:                                             314.198824 eV
  Excited state 12 (A)                                             [converged]
  Term symbol:  13 (-) A                                    R^2 =  3.67365e-14
  Excitation energy:                                             314.659641 eV
  Excited state 13 (A)                                             [converged]
  Term symbol:  14 (-) A                                    R^2 =  2.14423e-13
  Excitation energy:                                             314.999947 eV
  Excited state 14 (A)                                             [converged]
  Term symbol:  15 (-) A                                    R^2 =  8.30259e-13
  Excitation energy:                                             315.804805 eV
  Excited state 15 (A)                                             [converged]
  Term symbol:  16 (-) A                                    R^2 =  1.82931e-12
  Excitation energy:                                             317.345951 eV
  Excited state 16 (A)                                             [converged]
  Term symbol:  17 (-) A                                    R^2 =  3.79253e-08
  Excitation energy:                                             318.176722 eV
  Excited state 17 (A)                                             [converged]
  Term symbol:  18 (-) A                                    R^2 =  9.74008e-10
  Excitation energy:                                             330.721266 eV
  Excited state 18 (A)                                             [converged]
  Term symbol:  19 (-) A                                    R^2 =  1.36096e-08
  Excitation energy:                                             330.920653 eV
  Excited state 19 (A)                                             [converged]
  Term symbol:  20 (-) A                                    R^2 =  4.22187e-07
  Excitation energy:                                             332.037794 eV
  Excited state 20 (A)                                             [converged]
  Term symbol:  21 (-) A                                    R^2 =  9.22319e-07
  Excitation energy:                                             332.164215 eV

                    Orbital Energies (a.u.)
 --------------------------------------------------------------

 Alpha MOs
 -- Occupied --
-26.606 -26.560 -26.482 -25.946 -11.751  -2.038  -1.924  -1.785
 -1.204  -1.160  -1.082  -1.050  -1.028  -0.899  -0.886  -0.855
 -0.795  -0.792  -0.314  -0.313  -0.306

 Beta MOs
 -- Occupied --
-26.606 -26.560 -26.482 -25.946 -11.751  -2.038  -1.924  -1.785
 -1.204  -1.160  -1.082  -1.050  -1.028  -0.899  -0.886  -0.855
 -0.795  -0.792  -0.314  -0.313  -0.306

          Ground-State Mulliken Net Atomic Charges

     Atom                 Charge (a.u.)    Spin (a.u.)
  --------------------------------------------------------
      1 C                     1.097550       0.000000
      2 F                     0.019943       0.000000
      3 F                    -0.171063       0.000000
      4 F                    -0.883442       0.000000
      5 F                    -0.062989       0.000000
  --------------------------------------------------------
  Sum of atomic charges =     0.000000

                    Cartesian Multipole Moments
 -----------------------------------------------------------------
    Charge (ESU x 10^10)
                 0.0000
    Dipole Moment (Debye)
         X       5.8294      Y       8.9175      Z      -5.0049
       Tot      11.7709
    Quadrupole Moments (Debye-Ang)
        XX     -33.0766     XY       2.1721     YY       9.2779
        XZ       6.2012     YZ      -7.1301     ZZ     -24.9863

 Total job time:  1578.61s(wall), 2618.21s(cpu)
        *  Thank you very much for using Q-Chem.  Have a nice day.  *
