 Q-Chem 4.3, Q-Chem, Inc., Pleasanton, CA (2015)
 Q-Chem 4.3.0 for Intel X86 Linux

User input:
--------------------------------------------------------------
$comment
XAS calculation for the 2b valence excited for water using cvs-adc(2)-x + 6-311+G* basis set
job 1 - determination of HF orbitals
$end

$molecule
0 1
6  -0.648476  2.43918  -0.051837
9  0.604715  2.356184  -0.001495
9  -1.151599  3.280918  0.807676
9  -1.173379  1.171186  0.453624
9  -1.139318  2.553622  -1.211099
$end

$rem
jobtype      sp
sym_ignore true
exchange     hf
basis        6-31G*
unrestricted true
$end

--------------------------------------------------------------

    8    -435.6216034955      4.80E-06 Convergence criterion met
 Total energy in the final basis set = -435.6216034955

                    Orbital Energies (a.u.)
 --------------------------------------------------------------

 Alpha MOs
 -- Occupied --
-26.408 -26.403 -26.382 -26.309 -11.616  -1.824  -1.724  -1.696
 -1.586  -1.013  -0.908  -0.901  -0.875  -0.766  -0.762  -0.731
 -0.720  -0.694  -0.651  -0.638  -0.633

 Beta MOs
 -- Occupied --
-26.408 -26.403 -26.382 -26.309 -11.616  -1.824  -1.724  -1.696
 -1.586  -1.013  -0.908  -0.901  -0.875  -0.766  -0.762  -0.731
 -0.720  -0.694  -0.651  -0.638  -0.633

          Ground-State Mulliken Net Atomic Charges

     Atom                 Charge (a.u.)    Spin (a.u.)
  --------------------------------------------------------
      1 C                     1.316327       0.000000
      2 F                    -0.267485       0.000000
      3 F                    -0.319822       0.000000
      4 F                    -0.452640       0.000000
      5 F                    -0.276380       0.000000
  --------------------------------------------------------
  Sum of atomic charges =     0.000000

                    Cartesian Multipole Moments
 -----------------------------------------------------------------
    Charge (ESU x 10^10)
                 0.0000
    Dipole Moment (Debye)
         X       0.7092      Y       1.1021      Z      -0.6962
       Tot       1.4840
    Quadrupole Moments (Debye-Ang)
        XX     -25.6210     XY       0.5473     YY     -20.4402
        XZ       0.7128     YZ      -1.3736     ZZ     -24.7528

 Total job time:  2.29s(wall), 8.47s(cpu)
        *  Thank you very much for using Q-Chem.  Have a nice day.  *
 Q-Chem 4.3, Q-Chem, Inc., Pleasanton, CA (2015)
 Q-Chem 4.3.0 for Intel X86 Linux

User input:
--------------------------------------------------------------

$comment
job3 - cvs-adc(2) calculation
$end

$molecule
read
$end

$rem
mem_total 3000
mem_static 1500
sym_ignore true
scf_guess read
method cvs-adc(2)
basis 6-31G*
ee_singlets 20
cc_rest_occ 5                  !only excitations from the lowest N orbitals
unrestricted  true
max_scf_cycles 200
$end
--------------------------------------------------------------

             Standard Nuclear Orientation (Angstroms)
    I     Atom           X                Y                Z
 ----------------------------------------------------------------
    1      C      -0.6484760000     2.4391800000    -0.0518370000
    2      F       0.6047150000     2.3561840000    -0.0014950000
    3      F      -1.1515990000     3.2809180000     0.8076760000
    4      F      -1.1733790000     1.1711860000     0.4536240000
    5      F      -1.1393180000     2.5536220000    -1.2110990000
 ----------------------------------------------------------------

    5    -435.6216035596      9.78E-09 Convergence criterion met
 Total energy in the final basis set = -435.6216035596
