 Q-Chem 4.3, Q-Chem, Inc., Pleasanton, CA (2015)
 Q-Chem 4.3.0 for Intel X86 Linux

User input:
--------------------------------------------------------------
$comment
XAS calculation for the 2b valence excited for water using cvs-adc(2)-x + 6-311+G* basis set
job 1 - determination of HF orbitals
$end

$molecule
0 1
6  -0.384959  2.99056  -0.257996
9  0.71728  2.518554  -0.095278
9  -1.13352  3.101905  0.793191
9  -1.518965  0.832455  0.734478
9  -1.071632  2.582713  -1.266616
$end

$rem
jobtype      sp
sym_ignore true
exchange     hf
basis        6-31G*
unrestricted true
$end

--------------------------------------------------------------

   14    -435.3244308159      7.55E-06 Convergence criterion met
 Total energy in the final basis set = -435.3244308159
 Total job time:  3.60s(wall), 17.43s(cpu)
        *  Thank you very much for using Q-Chem.  Have a nice day.  *
 Q-Chem 4.3, Q-Chem, Inc., Pleasanton, CA (2015)
 Q-Chem 4.3.0 for Intel X86 Linux

User input:
--------------------------------------------------------------

$comment
job3 - cvs-adc(2) calculation
$end

$molecule
read
$end

$rem
mem_total 3000
mem_static 1500
sym_ignore true
scf_guess read
method cvs-adc(2)
basis 6-31G*
ee_singlets 20
cc_rest_occ 5                  !only excitations from the lowest N orbitals
unrestricted  true
max_scf_cycles 200
$end
--------------------------------------------------------------

             Standard Nuclear Orientation (Angstroms)
    I     Atom           X                Y                Z
 ----------------------------------------------------------------
    1      C      -0.3849590000     2.9905600000    -0.2579960000
    2      F       0.7172800000     2.5185540000    -0.0952780000
    3      F      -1.1335200000     3.1019050000     0.7931910000
    4      F      -1.5189650000     0.8324550000     0.7344780000
    5      F      -1.0716320000     2.5827130000    -1.2666160000
 ----------------------------------------------------------------

   11    -435.3244314859      3.57E-09 Convergence criterion met
 Total energy in the final basis set = -435.3244314859
  Term symbol:  2 (-) A                                     R^2 =  3.48989e-11
  Excitation energy:                                             293.231212 eV
  Term symbol:  3 (-) A                                     R^2 =  1.15026e-10
  Excitation energy:                                             294.925959 eV
  Term symbol:  4 (-) A                                     R^2 =  7.82608e-12
  Excitation energy:                                             302.396984 eV
  Term symbol:  5 (-) A                                     R^2 =  1.05358e-10
  Excitation energy:                                             302.917603 eV
  Term symbol:  6 (-) A                                     R^2 =  4.68412e-11
  Excitation energy:                                             304.368253 eV
  Term symbol:  7 (-) A                                     R^2 =  8.17663e-11
  Excitation energy:                                             304.623135 eV
  Term symbol:  8 (-) A                                     R^2 =  1.70647e-10
  Excitation energy:                                             305.055888 eV
  Term symbol:  9 (-) A                                     R^2 =  3.90232e-11
  Excitation energy:                                             306.493843 eV
  Term symbol:  10 (-) A                                    R^2 =  7.15442e-10
  Excitation energy:                                             312.038295 eV
  Excited state 10 (A)                                             [converged]
  Term symbol:  11 (-) A                                    R^2 =  1.13001e-10
  Excitation energy:                                             313.346930 eV
  Excited state 11 (A)                                             [converged]
  Term symbol:  12 (-) A                                    R^2 =  5.49267e-10
  Excitation energy:                                             313.480791 eV
  Excited state 12 (A)                                             [converged]
  Term symbol:  13 (-) A                                    R^2 =  6.10560e-10
  Excitation energy:                                             313.642769 eV
  Excited state 13 (A)                                             [converged]
  Term symbol:  14 (-) A                                    R^2 =  1.38455e-10
  Excitation energy:                                             313.857486 eV
  Excited state 14 (A)                                             [converged]
  Term symbol:  15 (-) A                                    R^2 =  7.87681e-10
  Excitation energy:                                             314.261402 eV
  Excited state 15 (A)                                             [converged]
  Term symbol:  16 (-) A                                    R^2 =  4.56627e-09
  Excitation energy:                                             317.160696 eV
  Excited state 16 (A)                                             [converged]
  Term symbol:  17 (-) A                                    R^2 =  5.01249e-09
  Excitation energy:                                             317.759208 eV
  Excited state 17 (A)                                             [converged]
  Term symbol:  18 (-) A                                    R^2 =  9.69516e-09
  Excitation energy:                                             322.916371 eV
  Excited state 18 (A)                                             [converged]
  Term symbol:  19 (-) A                                    R^2 =  1.35331e-08
  Excitation energy:                                             322.937992 eV
  Excited state 19 (A)                                         [not converged]
  Term symbol:  20 (-) A                                    R^2 =  2.90416e-01
  Excitation energy:                                             324.513325 eV
  Excited state 20 (A)                                         [not converged]
  Term symbol:  21 (-) A                                    R^2 =  5.96775e-01
  Excitation energy:                                             330.288634 eV

                    Orbital Energies (a.u.)
 --------------------------------------------------------------

 Alpha MOs
 -- Occupied --
-26.557 -26.514 -26.505 -25.982 -11.734  -1.937  -1.830  -1.785
 -1.236  -1.110  -1.007  -0.998  -0.952  -0.845  -0.839  -0.825
 -0.793  -0.786  -0.346  -0.346  -0.321

 Beta MOs
 -- Occupied --
-26.557 -26.514 -26.505 -25.982 -11.734  -1.937  -1.830  -1.785
 -1.236  -1.110  -1.007  -0.998  -0.952  -0.845  -0.839  -0.825
 -0.793  -0.786  -0.346  -0.346  -0.321

          Ground-State Mulliken Net Atomic Charges

     Atom                 Charge (a.u.)    Spin (a.u.)
  --------------------------------------------------------
      1 C                     1.182896       0.000000
      2 F                    -0.084602       0.000000
      3 F                    -0.113574       0.000000
      4 F                    -0.829351       0.000000
      5 F                    -0.155369       0.000000
  --------------------------------------------------------
  Sum of atomic charges =     0.000000

                    Cartesian Multipole Moments
 -----------------------------------------------------------------
    Charge (ESU x 10^10)
                 0.0000
    Dipole Moment (Debye)
         X       4.6782      Y       8.4940      Z      -3.7797
       Tot      10.4077
    Quadrupole Moments (Debye-Ang)
        XX     -31.2544     XY       1.3987     YY      10.4594
        XZ       4.4519     YZ      -5.4602     ZZ     -24.8121

 Total job time:  2262.36s(wall), 3678.78s(cpu)
        *  Thank you very much for using Q-Chem.  Have a nice day.  *
