 Q-Chem 4.3, Q-Chem, Inc., Pleasanton, CA (2015)
 Q-Chem 4.3.0 for Intel X86 Linux

User input:
--------------------------------------------------------------
$comment
XAS calculation for the 2b valence excited for water using cvs-adc(2)-x + 6-311+G* basis set
job 1 - determination of HF orbitals
$end

$molecule
0 1
6  -0.499533  2.88231  -0.229875
9  0.611571  2.458311  -0.052819
9  -1.088885  3.35901  0.726133
9  -1.373644  0.572556  0.695829
9  -1.071406  2.671224  -1.227196
$end

$rem
jobtype      sp
sym_ignore true
exchange     hf
basis        6-31G*
unrestricted true
$end

--------------------------------------------------------------

    9    -435.3843052073      6.40E-06 Convergence criterion met
 Total energy in the final basis set = -435.3843052073
 Total job time:  13.25s(wall), 10.71s(cpu)
        *  Thank you very much for using Q-Chem.  Have a nice day.  *
 Q-Chem 4.3, Q-Chem, Inc., Pleasanton, CA (2015)
 Q-Chem 4.3.0 for Intel X86 Linux

User input:
--------------------------------------------------------------

$comment
job3 - cvs-adc(2) calculation
$end

$molecule
read
$end

$rem
mem_total 3000
mem_static 1500
sym_ignore true
scf_guess read
method cvs-adc(2)
basis 6-31G*
ee_singlets 20
cc_rest_occ 5                  !only excitations from the lowest N orbitals
unrestricted  true
max_scf_cycles 200
$end
--------------------------------------------------------------

             Standard Nuclear Orientation (Angstroms)
    I     Atom           X                Y                Z
 ----------------------------------------------------------------
    1      C      -0.4995330000     2.8823100000    -0.2298750000
    2      F       0.6115710000     2.4583110000    -0.0528190000
    3      F      -1.0888850000     3.3590100000     0.7261330000
    4      F      -1.3736440000     0.5725560000     0.6958290000
    5      F      -1.0714060000     2.6712240000    -1.2271960000
 ----------------------------------------------------------------

    6    -435.3843052021      5.19E-09 Convergence criterion met
 Total energy in the final basis set = -435.3843052021
  Term symbol:  2 (-) A                                     R^2 =  1.26694e-13
  Excitation energy:                                             294.701613 eV
  Term symbol:  3 (-) A                                     R^2 =  7.27725e-14
  Excitation energy:                                             296.604271 eV
  Term symbol:  4 (-) A                                     R^2 =  9.86238e-14
  Excitation energy:                                             303.926684 eV
  Term symbol:  5 (-) A                                     R^2 =  5.21492e-14
  Excitation energy:                                             305.529111 eV
  Term symbol:  6 (-) A                                     R^2 =  6.36057e-14
  Excitation energy:                                             305.831127 eV
  Term symbol:  7 (-) A                                     R^2 =  1.61523e-13
  Excitation energy:                                             307.073116 eV
  Term symbol:  8 (-) A                                     R^2 =  6.60293e-14
  Excitation energy:                                             308.027568 eV
  Term symbol:  9 (-) A                                     R^2 =  4.04283e-14
  Excitation energy:                                             309.199375 eV
  Term symbol:  10 (-) A                                    R^2 =  1.65855e-13
  Excitation energy:                                             312.548789 eV
  Excited state 10 (A)                                             [converged]
  Term symbol:  11 (-) A                                    R^2 =  1.43009e-13
  Excitation energy:                                             314.145970 eV
  Excited state 11 (A)                                             [converged]
  Term symbol:  12 (-) A                                    R^2 =  1.40132e-13
  Excitation energy:                                             314.652253 eV
  Excited state 12 (A)                                             [converged]
  Term symbol:  13 (-) A                                    R^2 =  1.96395e-13
  Excitation energy:                                             314.813426 eV
  Excited state 13 (A)                                             [converged]
  Term symbol:  14 (-) A                                    R^2 =  1.60862e-13
  Excitation energy:                                             315.008576 eV
  Excited state 14 (A)                                             [converged]
  Term symbol:  15 (-) A                                    R^2 =  1.90610e-13
  Excitation energy:                                             315.262913 eV
  Excited state 15 (A)                                             [converged]
  Term symbol:  16 (-) A                                    R^2 =  9.30952e-13
  Excitation energy:                                             317.612386 eV
  Excited state 16 (A)                                             [converged]
  Term symbol:  17 (-) A                                    R^2 =  7.57552e-13
  Excitation energy:                                             318.503179 eV
  Excited state 17 (A)                                             [converged]
  Term symbol:  18 (-) A                                    R^2 =  2.44343e-08
  Excitation energy:                                             331.693340 eV
  Excited state 18 (A)                                             [converged]
  Term symbol:  19 (-) A                                    R^2 =  2.44214e-07
  Excitation energy:                                             331.875028 eV
  Excited state 19 (A)                                         [not converged]
  Term symbol:  20 (-) A                                    R^2 =  3.48927e-06
  Excitation energy:                                             332.273809 eV
  Excited state 20 (A)                                         [not converged]
  Term symbol:  21 (-) A                                    R^2 =  1.62358e-05
  Excitation energy:                                             332.411435 eV

                    Orbital Energies (a.u.)
 --------------------------------------------------------------

 Alpha MOs
 -- Occupied --
-26.560 -26.541 -26.532 -25.967 -11.744  -1.993  -1.890  -1.860
 -1.222  -1.133  -1.059  -1.054  -1.000  -0.881  -0.880  -0.858
 -0.841  -0.823  -0.332  -0.332  -0.324

 Beta MOs
 -- Occupied --
-26.560 -26.541 -26.532 -25.967 -11.744  -1.993  -1.890  -1.860
 -1.222  -1.133  -1.059  -1.054  -1.000  -0.881  -0.880  -0.858
 -0.841  -0.823  -0.332  -0.332  -0.324

          Ground-State Mulliken Net Atomic Charges

     Atom                 Charge (a.u.)    Spin (a.u.)
  --------------------------------------------------------
      1 C                     1.103165       0.000000
      2 F                    -0.090290       0.000000
      3 F                    -0.111120       0.000000
      4 F                    -0.856689       0.000000
      5 F                    -0.045066       0.000000
  --------------------------------------------------------
  Sum of atomic charges =     0.000000

                    Cartesian Multipole Moments
 -----------------------------------------------------------------
    Charge (ESU x 10^10)
                 0.0000
    Dipole Moment (Debye)
         X       3.5661      Y       9.4816      Z      -4.0155
       Tot      10.8969
    Quadrupole Moments (Debye-Ang)
        XX     -29.1993     XY      -2.4222     YY      10.8936
        XZ       4.4964     YZ      -5.3009     ZZ     -24.0858

 Total job time:  2072.22s(wall), 3345.56s(cpu)
        *  Thank you very much for using Q-Chem.  Have a nice day.  *
