 Q-Chem 4.3, Q-Chem, Inc., Pleasanton, CA (2015)
 Q-Chem 4.3.0 for Intel X86 Linux

User input:
--------------------------------------------------------------
$comment
XAS calculation for the 2b valence excited for water using cvs-adc(2)-x + 6-311+G* basis set
job 1 - determination of HF orbitals
$end

$molecule
0 1
6  -0.600757  2.90006  -0.152251
9  0.493504  2.347404  0.034824
9  -1.067183  3.555857  0.674677
9  -1.167232  0.414529  0.604903
9  -1.123776  2.73468  -1.214352
$end

$rem
jobtype      sp
sym_ignore true
exchange     hf
basis        6-31G*
unrestricted true
$end

--------------------------------------------------------------

    9    -435.3821991718      7.58E-06 Convergence criterion met
 Total energy in the final basis set = -435.3821991718
 Total job time:  4.19s(wall), 10.78s(cpu)
        *  Thank you very much for using Q-Chem.  Have a nice day.  *
 Q-Chem 4.3, Q-Chem, Inc., Pleasanton, CA (2015)
 Q-Chem 4.3.0 for Intel X86 Linux

User input:
--------------------------------------------------------------

$comment
job3 - cvs-adc(2) calculation
$end

$molecule
read
$end

$rem
mem_total 3000
mem_static 1500
sym_ignore true
scf_guess read
method cvs-adc(2)
basis 6-31G*
ee_singlets 20
cc_rest_occ 5                  !only excitations from the lowest N orbitals
unrestricted  true
max_scf_cycles 200
$end
--------------------------------------------------------------

             Standard Nuclear Orientation (Angstroms)
    I     Atom           X                Y                Z
 ----------------------------------------------------------------
    1      C      -0.6007570000     2.9000600000    -0.1522510000
    2      F       0.4935040000     2.3474040000     0.0348240000
    3      F      -1.0671830000     3.5558570000     0.6746770000
    4      F      -1.1672320000     0.4145290000     0.6049030000
    5      F      -1.1237760000     2.7346800000    -1.2143520000
 ----------------------------------------------------------------

    7    -435.3821994206      3.81E-09 Convergence criterion met
 Total energy in the final basis set = -435.3821994206
  Term symbol:  2 (-) A                                     R^2 =  2.98642e-11
  Excitation energy:                                             294.966045 eV
  Term symbol:  3 (-) A                                     R^2 =  9.77434e-12
  Excitation energy:                                             296.912552 eV
  Term symbol:  4 (-) A                                     R^2 =  4.09172e-12
  Excitation energy:                                             303.599547 eV
  Term symbol:  5 (-) A                                     R^2 =  2.17730e-11
  Excitation energy:                                             305.149376 eV
  Term symbol:  6 (-) A                                     R^2 =  1.75305e-11
  Excitation energy:                                             305.622421 eV
  Term symbol:  7 (-) A                                     R^2 =  5.76672e-12
  Excitation energy:                                             307.577583 eV
  Term symbol:  8 (-) A                                     R^2 =  1.62360e-11
  Excitation energy:                                             307.768253 eV
  Term symbol:  9 (-) A                                     R^2 =  1.10748e-11
  Excitation energy:                                             309.710885 eV
  Term symbol:  10 (-) A                                    R^2 =  2.14580e-11
  Excitation energy:                                             312.679077 eV
  Excited state 10 (A)                                             [converged]
  Term symbol:  11 (-) A                                    R^2 =  1.79836e-11
  Excitation energy:                                             314.151391 eV
  Excited state 11 (A)                                             [converged]
  Term symbol:  12 (-) A                                    R^2 =  4.43293e-12
  Excitation energy:                                             314.483590 eV
  Excited state 12 (A)                                             [converged]
  Term symbol:  13 (-) A                                    R^2 =  2.00903e-11
  Excitation energy:                                             314.924967 eV
  Excited state 13 (A)                                             [converged]
  Term symbol:  14 (-) A                                    R^2 =  9.97016e-13
  Excitation energy:                                             314.972531 eV
  Excited state 14 (A)                                             [converged]
  Term symbol:  15 (-) A                                    R^2 =  9.85638e-12
  Excitation energy:                                             315.495852 eV
  Excited state 15 (A)                                             [converged]
  Term symbol:  16 (-) A                                    R^2 =  1.42079e-11
  Excitation energy:                                             317.319091 eV
  Excited state 16 (A)                                             [converged]
  Term symbol:  17 (-) A                                    R^2 =  6.38078e-11
  Excitation energy:                                             318.222654 eV
  Excited state 17 (A)                                         [not converged]
  Term symbol:  18 (-) A                                    R^2 =  2.13188e-01
  Excitation energy:                                             330.945248 eV
  Excited state 18 (A)                                             [converged]
  Term symbol:  19 (-) A                                    R^2 =  1.20890e-09
  Excitation energy:                                             331.254647 eV
  Excited state 19 (A)                                             [converged]
  Term symbol:  20 (-) A                                    R^2 =  6.31907e-09
  Excitation energy:                                             331.434897 eV
  Excited state 20 (A)                                         [not converged]
  Term symbol:  21 (-) A                                    R^2 =  3.40533e-01
  Excitation energy:                                             331.853523 eV

                    Orbital Energies (a.u.)
 --------------------------------------------------------------

 Alpha MOs
 -- Occupied --
-26.575 -26.546 -26.510 -25.974 -11.743  -2.006  -1.902  -1.838
 -1.227  -1.141  -1.066  -1.050  -1.008  -0.886  -0.876  -0.870
 -0.826  -0.814  -0.337  -0.337  -0.325

 Beta MOs
 -- Occupied --
-26.575 -26.546 -26.510 -25.974 -11.743  -2.006  -1.902  -1.838
 -1.227  -1.141  -1.066  -1.050  -1.008  -0.886  -0.876  -0.870
 -0.826  -0.814  -0.337  -0.337  -0.325

          Ground-State Mulliken Net Atomic Charges

     Atom                 Charge (a.u.)    Spin (a.u.)
  --------------------------------------------------------
      1 C                     1.092084       0.000000
      2 F                    -0.124873       0.000000
      3 F                    -0.035940       0.000000
      4 F                    -0.843966       0.000000
      5 F                    -0.087305       0.000000
  --------------------------------------------------------
  Sum of atomic charges =     0.000000

                    Cartesian Multipole Moments
 -----------------------------------------------------------------
    Charge (ESU x 10^10)
                 0.0000
    Dipole Moment (Debye)
         X       2.0765      Y      10.1970      Z      -2.9461
       Tot      10.8153
    Quadrupole Moments (Debye-Ang)
        XX     -26.4607     XY      -5.5825     YY      12.4293
        XZ       3.0208     YZ      -2.6572     ZZ     -23.8427

 Total job time:  1999.36s(wall), 3266.02s(cpu)
        *  Thank you very much for using Q-Chem.  Have a nice day.  *
