 Q-Chem 4.3, Q-Chem, Inc., Pleasanton, CA (2015)
 Q-Chem 4.3.0 for Intel X86 Linux

User input:
--------------------------------------------------------------
$comment
XAS calculation for the 2b valence excited for water using cvs-adc(2)-x + 6-311+G* basis set
job 1 - determination of HF orbitals
$end

$molecule
0 1
6  -0.262617  2.876678  -0.364996
9  0.84899  2.963187  -0.279454
9  -1.016525  3.174177  0.755637
9  -2.059571  0.155269  1.168882
9  -0.886025  2.860985  -1.413191
$end

$rem
jobtype      sp
sym_ignore true
exchange     hf
basis        6-31G*
unrestricted true
$end

--------------------------------------------------------------

   14    -435.2665191003      1.36E-06 Convergence criterion met
 Total energy in the final basis set = -435.2665191003

                    Orbital Energies (a.u.)
 --------------------------------------------------------------

 Alpha MOs
 -- Occupied --
-26.652 -26.597 -26.515 -25.899 -11.795  -2.080  -1.942  -1.789
 -1.202  -1.157  -1.111  -1.078  -1.063  -0.930  -0.918  -0.872
 -0.823  -0.821  -0.269  -0.269  -0.248

 Beta MOs
 -- Occupied --
-26.652 -26.597 -26.515 -25.899 -11.795  -2.080  -1.942  -1.789
 -1.202  -1.157  -1.111  -1.078  -1.063  -0.930  -0.918  -0.872
 -0.823  -0.821  -0.269  -0.269  -0.248

          Ground-State Mulliken Net Atomic Charges

     Atom                 Charge (a.u.)    Spin (a.u.)
  --------------------------------------------------------
      1 C                     1.174678       0.000000
      2 F                     0.037410       0.000000
      3 F                    -0.213036       0.000000
      4 F                    -0.903773       0.000000
      5 F                    -0.095279       0.000000
  --------------------------------------------------------
  Sum of atomic charges =     0.000000

                    Cartesian Multipole Moments
 -----------------------------------------------------------------
    Charge (ESU x 10^10)
                 0.0000
    Dipole Moment (Debye)
         X       8.4090      Y      11.4115      Z      -6.9810
       Tot      15.8009
    Quadrupole Moments (Debye-Ang)
        XX     -40.3595     XY       0.4012     YY      11.8594
        XZ      10.8185     YZ      -6.5854     ZZ     -27.7805

 Total job time:  3.67s(wall), 16.71s(cpu)
        *  Thank you very much for using Q-Chem.  Have a nice day.  *
 Q-Chem 4.3, Q-Chem, Inc., Pleasanton, CA (2015)
 Q-Chem 4.3.0 for Intel X86 Linux

User input:
--------------------------------------------------------------

$comment
job3 - cvs-adc(2) calculation
$end

$molecule
read
$end

$rem
mem_total 3000
mem_static 1500
sym_ignore true
scf_guess read
method cvs-adc(2)
basis 6-31G*
ee_singlets 20
cc_rest_occ 5                  !only excitations from the lowest N orbitals
unrestricted  true
max_scf_cycles 200
$end
--------------------------------------------------------------

             Standard Nuclear Orientation (Angstroms)
    I     Atom           X                Y                Z
 ----------------------------------------------------------------
    1      C      -0.2626170000     2.8766780000    -0.3649960000
    2      F       0.8489900000     2.9631870000    -0.2794540000
    3      F      -1.0165250000     3.1741770000     0.7556370000
    4      F      -2.0595710000     0.1552690000     1.1688820000
    5      F      -0.8860250000     2.8609850000    -1.4131910000
 ----------------------------------------------------------------

    8    -435.2665189233      3.88E-09 Convergence criterion met
 Total energy in the final basis set = -435.2665189233
