 Q-Chem 4.3, Q-Chem, Inc., Pleasanton, CA (2015)
 Q-Chem 4.3.0 for Intel X86 Linux

User input:
--------------------------------------------------------------
$comment
XAS calculation for the 2b valence excited for water using cvs-adc(2)-x + 6-311+G* basis set
job 1 - determination of HF orbitals
$end

$molecule
0 1
6  -0.524318  2.778031  -0.154859
9  0.697778  2.629056  -0.119696
9  -1.031525  3.518448  0.668384
9  -1.553304  0.12038  0.889254
9  -1.017875  2.860347  -1.340332
$end

$rem
jobtype      sp
sym_ignore true
exchange     hf
basis        6-31G*
unrestricted true
$end

--------------------------------------------------------------

   14    -435.3449797632      2.86E-06 Convergence criterion met
 Total energy in the final basis set = -435.3449797632

                    Orbital Energies (a.u.)
 --------------------------------------------------------------

 Alpha MOs
 -- Occupied --
-26.543 -26.539 -26.516 -26.048 -11.743  -1.953  -1.858  -1.818
 -1.277  -1.123  -1.030  -1.021  -0.970  -0.871  -0.861  -0.843
 -0.825  -0.811  -0.393  -0.393  -0.335

 Beta MOs
 -- Occupied --
-26.543 -26.539 -26.516 -26.048 -11.743  -1.953  -1.858  -1.818
 -1.277  -1.123  -1.030  -1.021  -0.970  -0.871  -0.861  -0.843
 -0.825  -0.811  -0.393  -0.393  -0.335

          Ground-State Mulliken Net Atomic Charges

     Atom                 Charge (a.u.)    Spin (a.u.)
  --------------------------------------------------------
      1 C                     1.140662       0.000000
      2 F                    -0.133092       0.000000
      3 F                    -0.113720       0.000000
      4 F                    -0.698556       0.000000
      5 F                    -0.195294       0.000000
  --------------------------------------------------------
  Sum of atomic charges =     0.000000

                    Cartesian Multipole Moments
 -----------------------------------------------------------------
    Charge (ESU x 10^10)
                 0.0000
    Dipole Moment (Debye)
         X       3.4497      Y       8.7267      Z      -3.1364
       Tot       9.8941
    Quadrupole Moments (Debye-Ang)
        XX     -30.1213     XY      -3.7578     YY       2.8530
        XZ       4.4227     YZ      -1.1182     ZZ     -25.8421

 Total job time:  3.78s(wall), 15.57s(cpu)
        *  Thank you very much for using Q-Chem.  Have a nice day.  *
 Q-Chem 4.3, Q-Chem, Inc., Pleasanton, CA (2015)
 Q-Chem 4.3.0 for Intel X86 Linux

User input:
--------------------------------------------------------------

$comment
job3 - cvs-adc(2) calculation
$end

$molecule
read
$end

$rem
mem_total 3000
mem_static 1500
sym_ignore true
scf_guess read
method cvs-adc(2)
basis 6-31G*
ee_singlets 20
cc_rest_occ 5                  !only excitations from the lowest N orbitals
unrestricted  true
max_scf_cycles 200
$end
--------------------------------------------------------------

             Standard Nuclear Orientation (Angstroms)
    I     Atom           X                Y                Z
 ----------------------------------------------------------------
    1      C      -0.5243180000     2.7780310000    -0.1548590000
    2      F       0.6977780000     2.6290560000    -0.1196960000
    3      F      -1.0315250000     3.5184480000     0.6683840000
    4      F      -1.5533040000     0.1203800000     0.8892540000
    5      F      -1.0178750000     2.8603470000    -1.3403320000
 ----------------------------------------------------------------

    7    -435.3449798683      9.38E-09 Convergence criterion met
 Total energy in the final basis set = -435.3449798683
