 Q-Chem 4.3, Q-Chem, Inc., Pleasanton, CA (2015)
 Q-Chem 4.3.0 for Intel X86 Linux

User input:
--------------------------------------------------------------
$comment
XAS calculation for the 2b valence excited for water using cvs-adc(2)-x + 6-311+G* basis set
job 1 - determination of HF orbitals
$end

$molecule
0 1
6  -0.458414  2.988033  -0.219062
9  0.576552  2.328774  -0.00254
9  -1.134739  3.252617  0.772511
9  -1.252956  0.873484  0.565877
9  -1.135903  2.538293  -1.202678
$end

$rem
jobtype      sp
sym_ignore true
exchange     hf
basis        6-31G*
unrestricted true
$end

--------------------------------------------------------------

   13    -435.3375058996      7.06E-06 Convergence criterion met
 Total energy in the final basis set = -435.3375058996
 Total job time:  3.53s(wall), 14.66s(cpu)
        *  Thank you very much for using Q-Chem.  Have a nice day.  *
 Q-Chem 4.3, Q-Chem, Inc., Pleasanton, CA (2015)
 Q-Chem 4.3.0 for Intel X86 Linux

User input:
--------------------------------------------------------------

$comment
job3 - cvs-adc(2) calculation
$end

$molecule
read
$end

$rem
mem_total 3000
mem_static 1500
sym_ignore true
scf_guess read
method cvs-adc(2)
basis 6-31G*
ee_singlets 20
cc_rest_occ 5                  !only excitations from the lowest N orbitals
unrestricted  true
max_scf_cycles 200
$end
--------------------------------------------------------------

             Standard Nuclear Orientation (Angstroms)
    I     Atom           X                Y                Z
 ----------------------------------------------------------------
    1      C      -0.4584140000     2.9880330000    -0.2190620000
    2      F       0.5765520000     2.3287740000    -0.0025400000
    3      F      -1.1347390000     3.2526170000     0.7725110000
    4      F      -1.2529560000     0.8734840000     0.5658770000
    5      F      -1.1359030000     2.5382930000    -1.2026780000
 ----------------------------------------------------------------

    9    -435.3375059324      7.66E-09 Convergence criterion met
 Total energy in the final basis set = -435.3375059324
  Term symbol:  2 (-) A                                     R^2 =  1.50670e-13
  Excitation energy:                                             292.791238 eV
  Term symbol:  3 (-) A                                     R^2 =  3.56309e-13
  Excitation energy:                                             294.548526 eV
  Term symbol:  4 (-) A                                     R^2 =  2.98410e-13
  Excitation energy:                                             303.161942 eV
  Term symbol:  5 (-) A                                     R^2 =  2.16779e-13
  Excitation energy:                                             304.088541 eV
  Term symbol:  6 (-) A                                     R^2 =  5.70073e-13
  Excitation energy:                                             304.711218 eV
  Term symbol:  7 (-) A                                     R^2 =  2.85176e-13
  Excitation energy:                                             305.173685 eV
  Term symbol:  8 (-) A                                     R^2 =  1.55903e-13
  Excitation energy:                                             306.080788 eV
  Term symbol:  9 (-) A                                     R^2 =  1.80414e-13
  Excitation energy:                                             306.792754 eV
  Term symbol:  10 (-) A                                    R^2 =  4.64269e-13
  Excitation energy:                                             311.974819 eV
  Excited state 10 (A)                                             [converged]
  Term symbol:  11 (-) A                                    R^2 =  7.78120e-13
  Excitation energy:                                             313.499319 eV
  Excited state 11 (A)                                             [converged]
  Term symbol:  12 (-) A                                    R^2 =  4.18708e-13
  Excitation energy:                                             313.634904 eV
  Excited state 12 (A)                                             [converged]
  Term symbol:  13 (-) A                                    R^2 =  1.91519e-12
  Excitation energy:                                             313.726616 eV
  Excited state 13 (A)                                             [converged]
  Term symbol:  14 (-) A                                    R^2 =  6.96872e-13
  Excitation energy:                                             314.166511 eV
  Excited state 14 (A)                                             [converged]
  Term symbol:  15 (-) A                                    R^2 =  4.83790e-13
  Excitation energy:                                             314.313281 eV
  Excited state 15 (A)                                             [converged]
  Term symbol:  16 (-) A                                    R^2 =  4.20904e-10
  Excitation energy:                                             319.548829 eV
  Excited state 16 (A)                                             [converged]
  Term symbol:  17 (-) A                                    R^2 =  6.18156e-12
  Excitation energy:                                             320.032273 eV
  Excited state 17 (A)                                         [not converged]
  Term symbol:  18 (-) A                                    R^2 =  1.30070e-01
  Excitation energy:                                             323.466589 eV
  Excited state 18 (A)                                         [not converged]
  Term symbol:  19 (-) A                                    R^2 =  2.70277e-01
  Excitation energy:                                             324.022308 eV
  Excited state 19 (A)                                         [not converged]
  Term symbol:  20 (-) A                                    R^2 =  8.28119e-01
  Excitation energy:                                             331.068653 eV
  Excited state 20 (A)                                         [not converged]
  Term symbol:  21 (-) A                                    R^2 =  1.42711e-03
  Excitation energy:                                             331.797622 eV

                    Orbital Energies (a.u.)
 --------------------------------------------------------------

 Alpha MOs
 -- Occupied --
-26.526 -26.518 -26.505 -25.970 -11.732  -1.925  -1.826  -1.800
 -1.235  -1.099  -1.003  -0.997  -0.940  -0.841  -0.836  -0.808
 -0.797  -0.789  -0.340  -0.340  -0.335

 Beta MOs
 -- Occupied --
-26.526 -26.518 -26.505 -25.970 -11.732  -1.925  -1.826  -1.800
 -1.235  -1.099  -1.003  -0.997  -0.940  -0.841  -0.836  -0.808
 -0.797  -0.789  -0.340  -0.340  -0.335

          Ground-State Mulliken Net Atomic Charges

     Atom                 Charge (a.u.)    Spin (a.u.)
  --------------------------------------------------------
      1 C                     1.217477       0.000000
      2 F                    -0.110090       0.000000
      3 F                    -0.088099       0.000000
      4 F                    -0.873537       0.000000
      5 F                    -0.145750       0.000000
  --------------------------------------------------------
  Sum of atomic charges =     0.000000

                    Cartesian Multipole Moments
 -----------------------------------------------------------------
    Charge (ESU x 10^10)
                 0.0000
    Dipole Moment (Debye)
         X       3.3228      Y       8.8315      Z      -3.0691
       Tot       9.9225
    Quadrupole Moments (Debye-Ang)
        XX     -28.3644     XY      -0.7386     YY      12.4374
        XZ       3.0187     YZ      -4.5912     ZZ     -23.9699

 Total job time:  1876.69s(wall), 3036.07s(cpu)
        *  Thank you very much for using Q-Chem.  Have a nice day.  *
