 Q-Chem 4.3, Q-Chem, Inc., Pleasanton, CA (2015)
 Q-Chem 4.3.0 for Intel X86 Linux

User input:
--------------------------------------------------------------
$comment
XAS calculation for the 2b valence excited for water using cvs-adc(2)-x + 6-311+G* basis set
job 1 - determination of HF orbitals
$end

$molecule
0 1
6  -0.537833  2.68276  -0.180266
9  0.834596  2.815904  -0.213231
9  -1.027971  3.156066  0.70187
9  -1.790813  0.495242  0.954002
9  -0.940882  2.786222  -1.327087
$end

$rem
jobtype      sp
sym_ignore true
exchange     hf
basis        6-31G*
unrestricted true
$end

--------------------------------------------------------------

   11    -435.3301567457      7.42E-06 Convergence criterion met
 Total energy in the final basis set = -435.3301567457
 Total job time:  3.06s(wall), 12.18s(cpu)
        *  Thank you very much for using Q-Chem.  Have a nice day.  *
 Q-Chem 4.3, Q-Chem, Inc., Pleasanton, CA (2015)
 Q-Chem 4.3.0 for Intel X86 Linux

User input:
--------------------------------------------------------------

$comment
job3 - cvs-adc(2) calculation
$end

$molecule
read
$end

$rem
mem_total 3000
mem_static 1500
sym_ignore true
scf_guess read
method cvs-adc(2)
basis 6-31G*
ee_singlets 20
cc_rest_occ 5                  !only excitations from the lowest N orbitals
unrestricted  true
max_scf_cycles 200
$end
--------------------------------------------------------------

             Standard Nuclear Orientation (Angstroms)
    I     Atom           X                Y                Z
 ----------------------------------------------------------------
    1      C      -0.5378330000     2.6827600000    -0.1802660000
    2      F       0.8345960000     2.8159040000    -0.2132310000
    3      F      -1.0279710000     3.1560660000     0.7018700000
    4      F      -1.7908130000     0.4952420000     0.9540020000
    5      F      -0.9408820000     2.7862220000    -1.3270870000
 ----------------------------------------------------------------

    8    -435.3301572212      5.61E-09 Convergence criterion met
 Total energy in the final basis set = -435.3301572212
  Term symbol:  2 (-) A                                     R^2 =  5.57914e-14
  Excitation energy:                                             294.323956 eV
  Term symbol:  3 (-) A                                     R^2 =  5.56180e-14
  Excitation energy:                                             296.252218 eV
  Term symbol:  4 (-) A                                     R^2 =  6.35387e-14
  Excitation energy:                                             301.025943 eV
  Term symbol:  5 (-) A                                     R^2 =  2.49279e-13
  Excitation energy:                                             303.224963 eV
  Term symbol:  6 (-) A                                     R^2 =  6.55755e-14
  Excitation energy:                                             304.621401 eV
  Term symbol:  7 (-) A                                     R^2 =  9.20819e-14
  Excitation energy:                                             306.409624 eV
  Term symbol:  8 (-) A                                     R^2 =  8.61986e-14
  Excitation energy:                                             308.322559 eV
  Term symbol:  9 (-) A                                     R^2 =  3.18160e-13
  Excitation energy:                                             309.752278 eV
  Term symbol:  10 (-) A                                    R^2 =  2.06297e-13
  Excitation energy:                                             313.455167 eV
  Excited state 10 (A)                                             [converged]
  Term symbol:  11 (-) A                                    R^2 =  1.43676e-13
  Excitation energy:                                             314.293712 eV
  Excited state 11 (A)                                             [converged]
  Term symbol:  12 (-) A                                    R^2 =  9.22278e-14
  Excitation energy:                                             314.333952 eV
  Excited state 12 (A)                                             [converged]
  Term symbol:  13 (-) A                                    R^2 =  9.23695e-14
  Excitation energy:                                             314.391392 eV
  Excited state 13 (A)                                             [converged]
  Term symbol:  14 (-) A                                    R^2 =  5.92283e-14
  Excitation energy:                                             314.938076 eV
  Excited state 14 (A)                                             [converged]
  Term symbol:  15 (-) A                                    R^2 =  4.75273e-14
  Excitation energy:                                             315.175554 eV
  Excited state 15 (A)                                             [converged]
  Term symbol:  16 (-) A                                    R^2 =  1.66744e-13
  Excitation energy:                                             315.855768 eV
  Excited state 16 (A)                                             [converged]
  Term symbol:  17 (-) A                                    R^2 =  2.33789e-13
  Excitation energy:                                             317.215842 eV
  Excited state 17 (A)                                             [converged]
  Term symbol:  18 (-) A                                    R^2 =  2.42970e-10
  Excitation energy:                                             327.316543 eV
  Excited state 18 (A)                                             [converged]
  Term symbol:  19 (-) A                                    R^2 =  4.24889e-11
  Excitation energy:                                             327.355757 eV
  Excited state 19 (A)                                         [not converged]
  Term symbol:  20 (-) A                                    R^2 =  1.53448e-01
  Excitation energy:                                             328.663645 eV
  Excited state 20 (A)                                             [converged]
  Term symbol:  21 (-) A                                    R^2 =  1.29625e-07
  Excitation energy:                                             330.533721 eV

                    Orbital Energies (a.u.)
 --------------------------------------------------------------

 Alpha MOs
 -- Occupied --
-26.570 -26.534 -26.472 -26.054 -11.739  -2.010  -1.885  -1.753
 -1.287  -1.134  -1.050  -1.026  -0.993  -0.879  -0.854  -0.823
 -0.790  -0.780  -0.402  -0.402  -0.356

 Beta MOs
 -- Occupied --
-26.570 -26.534 -26.472 -26.054 -11.739  -2.010  -1.885  -1.753
 -1.287  -1.134  -1.050  -1.026  -0.993  -0.879  -0.854  -0.823
 -0.790  -0.780  -0.402  -0.402  -0.356

          Ground-State Mulliken Net Atomic Charges

     Atom                 Charge (a.u.)    Spin (a.u.)
  --------------------------------------------------------
      1 C                     1.067424       0.000000
      2 F                    -0.289734       0.000000
      3 F                     0.054997       0.000000
      4 F                    -0.710771       0.000000
      5 F                    -0.121916       0.000000
  --------------------------------------------------------
  Sum of atomic charges =     0.000000

                    Cartesian Multipole Moments
 -----------------------------------------------------------------
    Charge (ESU x 10^10)
                 0.0000
    Dipole Moment (Debye)
         X       3.1738      Y       7.3882      Z      -3.3486
       Tot       8.7105
    Quadrupole Moments (Debye-Ang)
        XX     -32.5502     XY      -4.7095     YY       1.3298
        XZ       5.6956     YZ      -2.0131     ZZ     -25.6394

 Total job time:  2080.04s(wall), 3406.00s(cpu)
        *  Thank you very much for using Q-Chem.  Have a nice day.  *
