 Q-Chem 4.3, Q-Chem, Inc., Pleasanton, CA (2015)
 Q-Chem 4.3.0 for Intel X86 Linux

User input:
--------------------------------------------------------------
$comment
XAS calculation for the 2b valence excited for water using cvs-adc(2)-x + 6-311+G* basis set
job 1 - determination of HF orbitals
$end

$molecule
0 1
6  -0.563134  2.712921  -0.178841
9  0.580815  2.322694  0.006443
9  -1.144319  3.252986  0.792477
9  -1.187178  1.056183  0.489684
9  -1.131197  2.535649  -1.182316
$end

$rem
jobtype      sp
sym_ignore true
exchange     hf
basis        6-31G*
unrestricted true
$end

--------------------------------------------------------------

    8    -435.4643013684      6.61E-06 Convergence criterion met
 Total energy in the final basis set = -435.4643013684
 Total job time:  2.29s(wall), 9.52s(cpu)
        *  Thank you very much for using Q-Chem.  Have a nice day.  *
 Q-Chem 4.3, Q-Chem, Inc., Pleasanton, CA (2015)
 Q-Chem 4.3.0 for Intel X86 Linux

User input:
--------------------------------------------------------------

$comment
job3 - cvs-adc(2) calculation
$end

$molecule
read
$end

$rem
mem_total 3000
mem_static 1500
sym_ignore true
scf_guess read
method cvs-adc(2)
basis 6-31G*
ee_singlets 20
cc_rest_occ 5                  !only excitations from the lowest N orbitals
unrestricted  true
max_scf_cycles 200
$end
--------------------------------------------------------------

             Standard Nuclear Orientation (Angstroms)
    I     Atom           X                Y                Z
 ----------------------------------------------------------------
    1      C      -0.5631340000     2.7129210000    -0.1788410000
    2      F       0.5808150000     2.3226940000     0.0064430000
    3      F      -1.1443190000     3.2529860000     0.7924770000
    4      F      -1.1871780000     1.0561830000     0.4896840000
    5      F      -1.1311970000     2.5356490000    -1.1823160000
 ----------------------------------------------------------------

    6    -435.4643014865      7.97E-09 Convergence criterion met
 Total energy in the final basis set = -435.4643014865
  Term symbol:  2 (-) A                                     R^2 =  7.83055e-14
  Excitation energy:                                             295.235501 eV
  Term symbol:  3 (-) A                                     R^2 =  6.82440e-14
  Excitation energy:                                             297.106718 eV
  Term symbol:  4 (-) A                                     R^2 =  2.25549e-13
  Excitation energy:                                             303.667658 eV
  Term symbol:  5 (-) A                                     R^2 =  2.95444e-13
  Excitation energy:                                             304.850900 eV
  Term symbol:  6 (-) A                                     R^2 =  1.85865e-13
  Excitation energy:                                             305.718265 eV
  Term symbol:  7 (-) A                                     R^2 =  1.37435e-13
  Excitation energy:                                             306.914858 eV
  Term symbol:  8 (-) A                                     R^2 =  1.97812e-13
  Excitation energy:                                             306.991973 eV
  Term symbol:  9 (-) A                                     R^2 =  1.11286e-13
  Excitation energy:                                             308.934647 eV
  Term symbol:  10 (-) A                                    R^2 =  3.03028e-13
  Excitation energy:                                             311.848084 eV
  Excited state 10 (A)                                             [converged]
  Term symbol:  11 (-) A                                    R^2 =  1.76709e-13
  Excitation energy:                                             313.477022 eV
  Excited state 11 (A)                                             [converged]
  Term symbol:  12 (-) A                                    R^2 =  2.16631e-13
  Excitation energy:                                             314.240527 eV
  Excited state 12 (A)                                             [converged]
  Term symbol:  13 (-) A                                    R^2 =  2.72292e-13
  Excitation energy:                                             314.506702 eV
  Excited state 13 (A)                                             [converged]
  Term symbol:  14 (-) A                                    R^2 =  2.99988e-13
  Excitation energy:                                             314.591050 eV
  Excited state 14 (A)                                             [converged]
  Term symbol:  15 (-) A                                    R^2 =  1.97745e-13
  Excitation energy:                                             315.014469 eV
  Excited state 15 (A)                                             [converged]
  Term symbol:  16 (-) A                                    R^2 =  7.48605e-13
  Excitation energy:                                             318.914731 eV
  Excited state 16 (A)                                             [converged]
  Term symbol:  17 (-) A                                    R^2 =  4.13315e-13
  Excitation energy:                                             319.370961 eV
  Excited state 17 (A)                                             [converged]
  Term symbol:  18 (-) A                                    R^2 =  2.84868e-08
  Excitation energy:                                             330.850438 eV
  Excited state 18 (A)                                             [converged]
  Term symbol:  19 (-) A                                    R^2 =  2.68113e-07
  Excitation energy:                                             331.034772 eV
  Excited state 19 (A)                                         [not converged]
  Term symbol:  20 (-) A                                    R^2 =  2.87462e-06
  Excitation energy:                                             331.651306 eV
  Excited state 20 (A)                                         [not converged]
  Term symbol:  21 (-) A                                    R^2 =  3.19447e-05
  Excitation energy:                                             331.792083 eV

                    Orbital Energies (a.u.)
 --------------------------------------------------------------

 Alpha MOs
 -- Occupied --
-26.490 -26.462 -26.446 -26.093 -11.673  -1.917  -1.815  -1.770
 -1.359  -1.068  -0.987  -0.978  -0.926  -0.812  -0.807  -0.801
 -0.776  -0.752  -0.452  -0.452  -0.444

 Beta MOs
 -- Occupied --
-26.490 -26.462 -26.446 -26.093 -11.673  -1.917  -1.815  -1.770
 -1.359  -1.068  -0.987  -0.978  -0.926  -0.812  -0.807  -0.801
 -0.776  -0.752  -0.452  -0.452  -0.444

          Ground-State Mulliken Net Atomic Charges

     Atom                 Charge (a.u.)    Spin (a.u.)
  --------------------------------------------------------
      1 C                     1.186086       0.000000
      2 F                    -0.168363       0.000000
      3 F                    -0.205552       0.000000
      4 F                    -0.719736       0.000000
      5 F                    -0.092434       0.000000
  --------------------------------------------------------
  Sum of atomic charges =     0.000000

                    Cartesian Multipole Moments
 -----------------------------------------------------------------
    Charge (ESU x 10^10)
                 0.0000
    Dipole Moment (Debye)
         X       1.9546      Y       5.2437      Z      -2.5325
       Tot       6.1425
    Quadrupole Moments (Debye-Ang)
        XX     -26.7155     XY      -0.5739     YY      -2.9189
        XZ       2.4696     YZ      -4.6637     ZZ     -23.6644

 Total job time:  1986.49s(wall), 3007.59s(cpu)
        *  Thank you very much for using Q-Chem.  Have a nice day.  *
