 Q-Chem 4.3, Q-Chem, Inc., Pleasanton, CA (2015)
 Q-Chem 4.3.0 for Intel X86 Linux

User input:
--------------------------------------------------------------
$comment
XAS calculation for the 2b valence excited for water using cvs-adc(2)-x + 6-311+G* basis set
job 1 - determination of HF orbitals
$end

$molecule
0 1
6  -0.417154  3.231066  -0.325607
9  0.625237  2.605991  -0.098971
9  -1.036253  3.568982  0.643767
9  -1.562476  -0.209134  0.95889
9  -1.025657  2.885559  -1.290729
$end

$rem
jobtype      sp
sym_ignore true
exchange     hf
basis        6-31G*
unrestricted true
$end

--------------------------------------------------------------

   14    -435.2682155877      4.70E-06 Convergence criterion met
 Total energy in the final basis set = -435.2682155877
 Total job time:  3.71s(wall), 16.54s(cpu)
        *  Thank you very much for using Q-Chem.  Have a nice day.  *
 Q-Chem 4.3, Q-Chem, Inc., Pleasanton, CA (2015)
 Q-Chem 4.3.0 for Intel X86 Linux

User input:
--------------------------------------------------------------

$comment
job3 - cvs-adc(2) calculation
$end

$molecule
read
$end

$rem
mem_total 3000
mem_static 1500
sym_ignore true
scf_guess read
method cvs-adc(2)
basis 6-31G*
ee_singlets 20
cc_rest_occ 5                  !only excitations from the lowest N orbitals
unrestricted  true
max_scf_cycles 200
$end
--------------------------------------------------------------

             Standard Nuclear Orientation (Angstroms)
    I     Atom           X                Y                Z
 ----------------------------------------------------------------
    1      C      -0.4171540000     3.2310660000    -0.3256070000
    2      F       0.6252370000     2.6059910000    -0.0989710000
    3      F      -1.0362530000     3.5689820000     0.6437670000
    4      F      -1.5624760000    -0.2091340000     0.9588900000
    5      F      -1.0256570000     2.8855590000    -1.2907290000
 ----------------------------------------------------------------

   10    -435.2682153898      1.49E-09 Convergence criterion met
 Total energy in the final basis set = -435.2682153898
  Term symbol:  2 (-) A                                     R^2 =  1.28367e-11
  Excitation energy:                                             293.459829 eV
  Term symbol:  3 (-) A                                     R^2 =  2.24293e-13
  Excitation energy:                                             295.316383 eV
  Term symbol:  4 (-) A                                     R^2 =  5.62717e-12
  Excitation energy:                                             304.542761 eV
  Term symbol:  5 (-) A                                     R^2 =  4.87643e-12
  Excitation energy:                                             305.311374 eV
  Term symbol:  6 (-) A                                     R^2 =  2.10308e-12
  Excitation energy:                                             306.035936 eV
  Term symbol:  7 (-) A                                     R^2 =  4.67606e-12
  Excitation energy:                                             306.434657 eV
  Term symbol:  8 (-) A                                     R^2 =  3.38286e-12
  Excitation energy:                                             307.160988 eV
  Term symbol:  9 (-) A                                     R^2 =  1.44039e-13
  Excitation energy:                                             308.078360 eV
  Term symbol:  10 (-) A                                    R^2 =  3.97150e-12
  Excitation energy:                                             312.804619 eV
  Excited state 10 (A)                                             [converged]
  Term symbol:  11 (-) A                                    R^2 =  4.10262e-13
  Excitation energy:                                             314.170218 eV
  Excited state 11 (A)                                             [converged]
  Term symbol:  12 (-) A                                    R^2 =  4.19128e-13
  Excitation energy:                                             314.263327 eV
  Excited state 12 (A)                                             [converged]
  Term symbol:  13 (-) A                                    R^2 =  4.28576e-12
  Excitation energy:                                             314.418914 eV
  Excited state 13 (A)                                             [converged]
  Term symbol:  14 (-) A                                    R^2 =  5.20774e-13
  Excitation energy:                                             314.731529 eV
  Excited state 14 (A)                                             [converged]
  Term symbol:  15 (-) A                                    R^2 =  1.68345e-12
  Excitation energy:                                             314.945153 eV
  Excited state 15 (A)                                             [converged]
  Term symbol:  16 (-) A                                    R^2 =  9.22509e-12
  Excitation energy:                                             315.166082 eV
  Excited state 16 (A)                                             [converged]
  Term symbol:  17 (-) A                                    R^2 =  1.08518e-11
  Excitation energy:                                             316.206406 eV
  Excited state 17 (A)                                             [converged]
  Term symbol:  18 (-) A                                    R^2 =  8.54110e-09
  Excitation energy:                                             320.823808 eV
  Excited state 18 (A)                                             [converged]
  Term symbol:  19 (-) A                                    R^2 =  3.55984e-10
  Excitation energy:                                             320.823816 eV
  Excited state 19 (A)                                         [not converged]
  Term symbol:  20 (-) A                                    R^2 =  1.34229e-05
  Excitation energy:                                             320.824008 eV
  Excited state 20 (A)                                             [converged]
  Term symbol:  21 (-) A                                    R^2 =  7.99074e-09
  Excitation energy:                                             320.824008 eV

                    Orbital Energies (a.u.)
 --------------------------------------------------------------

 Alpha MOs
 -- Occupied --
-26.618 -26.614 -26.594 -25.840 -11.814  -2.051  -1.945  -1.912
 -1.193  -1.114  -1.109  -1.107  -1.060  -0.941  -0.935  -0.912
 -0.895  -0.880  -0.220  -0.220  -0.220

 Beta MOs
 -- Occupied --
-26.618 -26.614 -26.594 -25.840 -11.814  -2.051  -1.945  -1.912
 -1.193  -1.114  -1.109  -1.107  -1.060  -0.941  -0.935  -0.912
 -0.895  -0.880  -0.220  -0.220  -0.220

          Ground-State Mulliken Net Atomic Charges

     Atom                 Charge (a.u.)    Spin (a.u.)
  --------------------------------------------------------
      1 C                     1.188167       0.000000
      2 F                    -0.096152       0.000000
      3 F                    -0.053875       0.000000
      4 F                    -0.991622       0.000000
      5 F                    -0.046519       0.000000
  --------------------------------------------------------
  Sum of atomic charges =     0.000000

                    Cartesian Multipole Moments
 -----------------------------------------------------------------
    Charge (ESU x 10^10)
                 0.0000
    Dipole Moment (Debye)
         X       5.2874      Y      16.3554      Z      -6.1230
       Tot      18.2468
    Quadrupole Moments (Debye-Ang)
        XX     -32.8434     XY      -8.0322     YY      28.2559
        XZ       7.6768     YZ      -4.4677     ZZ     -25.8843

 Total job time:  1976.89s(wall), 3285.08s(cpu)
        *  Thank you very much for using Q-Chem.  Have a nice day.  *
