 Q-Chem 4.3, Q-Chem, Inc., Pleasanton, CA (2015)
 Q-Chem 4.3.0 for Intel X86 Linux

User input:
--------------------------------------------------------------
$comment
XAS calculation for the 2b valence excited for water using cvs-adc(2)-x + 6-311+G* basis set
job 1 - determination of HF orbitals
$end

$molecule
0 1
6  -0.468687  2.766173  -0.254567
9  0.775892  2.724487  -0.175898
9  -1.067535  3.13713  0.735607
9  -1.700046  0.610069  0.88096
9  -0.972176  2.72178  -1.27852
$end

$rem
jobtype      sp
sym_ignore true
exchange     hf
basis        6-31G*
unrestricted true
$end

--------------------------------------------------------------

   10    -435.3733855834      5.06E-06 Convergence criterion met
 Total energy in the final basis set = -435.3733855834
 Total job time:  2.68s(wall), 11.35s(cpu)
        *  Thank you very much for using Q-Chem.  Have a nice day.  *
 Q-Chem 4.3, Q-Chem, Inc., Pleasanton, CA (2015)
 Q-Chem 4.3.0 for Intel X86 Linux

User input:
--------------------------------------------------------------

$comment
job3 - cvs-adc(2) calculation
$end

$molecule
read
$end

$rem
mem_total 3000
mem_static 1500
sym_ignore true
scf_guess read
method cvs-adc(2)
basis 6-31G*
ee_singlets 20
cc_rest_occ 5                  !only excitations from the lowest N orbitals
unrestricted  true
max_scf_cycles 200
$end
--------------------------------------------------------------

             Standard Nuclear Orientation (Angstroms)
    I     Atom           X                Y                Z
 ----------------------------------------------------------------
    1      C      -0.4686870000     2.7661730000    -0.2545670000
    2      F       0.7758920000     2.7244870000    -0.1758980000
    3      F      -1.0675350000     3.1371300000     0.7356070000
    4      F      -1.7000460000     0.6100690000     0.8809600000
    5      F      -0.9721760000     2.7217800000    -1.2785200000
 ----------------------------------------------------------------

    7    -435.3733857468      7.43E-09 Convergence criterion met
 Total energy in the final basis set = -435.3733857468
  Term symbol:  2 (-) A                                     R^2 =  1.51225e-13
  Excitation energy:                                             294.894347 eV
  Term symbol:  3 (-) A                                     R^2 =  1.84409e-13
  Excitation energy:                                             296.867901 eV
  Term symbol:  4 (-) A                                     R^2 =  2.59657e-13
  Excitation energy:                                             303.301873 eV
  Term symbol:  5 (-) A                                     R^2 =  2.04076e-13
  Excitation energy:                                             304.975505 eV
  Term symbol:  6 (-) A                                     R^2 =  2.50151e-13
  Excitation energy:                                             305.366808 eV
  Term symbol:  7 (-) A                                     R^2 =  2.79427e-13
  Excitation energy:                                             307.507827 eV
  Term symbol:  8 (-) A                                     R^2 =  5.18219e-13
  Excitation energy:                                             307.648435 eV
  Term symbol:  9 (-) A                                     R^2 =  5.05787e-13
  Excitation energy:                                             309.572967 eV
  Term symbol:  10 (-) A                                    R^2 =  5.74981e-13
  Excitation energy:                                             312.967138 eV
  Excited state 10 (A)                                             [converged]
  Term symbol:  11 (-) A                                    R^2 =  1.80953e-12
  Excitation energy:                                             314.212977 eV
  Excited state 11 (A)                                             [converged]
  Term symbol:  12 (-) A                                    R^2 =  8.31547e-13
  Excitation energy:                                             314.385407 eV
  Excited state 12 (A)                                             [converged]
  Term symbol:  13 (-) A                                    R^2 =  4.60202e-13
  Excitation energy:                                             315.028932 eV
  Excited state 13 (A)                                             [converged]
  Term symbol:  14 (-) A                                    R^2 =  1.23190e-12
  Excitation energy:                                             315.054263 eV
  Excited state 14 (A)                                             [converged]
  Term symbol:  15 (-) A                                    R^2 =  9.13101e-13
  Excitation energy:                                             315.564262 eV
  Excited state 15 (A)                                             [converged]
  Term symbol:  16 (-) A                                    R^2 =  1.83293e-11
  Excitation energy:                                             316.734441 eV
  Excited state 16 (A)                                             [converged]
  Term symbol:  17 (-) A                                    R^2 =  2.64560e-10
  Excitation energy:                                             317.714524 eV
  Excited state 17 (A)                                         [not converged]
  Term symbol:  18 (-) A                                    R^2 =  2.55206e-01
  Excitation energy:                                             330.873128 eV
  Excited state 18 (A)                                             [converged]
  Term symbol:  19 (-) A                                    R^2 =  4.44406e-08
  Excitation energy:                                             331.112380 eV
  Excited state 19 (A)                                             [converged]
  Term symbol:  20 (-) A                                    R^2 =  2.94993e-07
  Excitation energy:                                             331.308734 eV
  Excited state 20 (A)                                         [not converged]
  Term symbol:  21 (-) A                                    R^2 =  3.92950e-01
  Excitation energy:                                             331.876839 eV

                    Orbital Energies (a.u.)
 --------------------------------------------------------------

 Alpha MOs
 -- Occupied --
-26.578 -26.536 -26.521 -25.983 -11.746  -2.010  -1.888  -1.846
 -1.232  -1.143  -1.061  -1.054  -1.009  -0.885  -0.878  -0.864
 -0.834  -0.819  -0.344  -0.343  -0.325

 Beta MOs
 -- Occupied --
-26.578 -26.536 -26.521 -25.983 -11.746  -2.010  -1.888  -1.846
 -1.232  -1.143  -1.061  -1.054  -1.009  -0.885  -0.878  -0.864
 -0.834  -0.819  -0.344  -0.343  -0.325

          Ground-State Mulliken Net Atomic Charges

     Atom                 Charge (a.u.)    Spin (a.u.)
  --------------------------------------------------------
      1 C                     1.095444       0.000000
      2 F                    -0.165956       0.000000
      3 F                    -0.088582       0.000000
      4 F                    -0.828500       0.000000
      5 F                    -0.012407       0.000000
  --------------------------------------------------------
  Sum of atomic charges =     0.000000

                    Cartesian Multipole Moments
 -----------------------------------------------------------------
    Charge (ESU x 10^10)
                 0.0000
    Dipole Moment (Debye)
         X       4.4797      Y       8.4290      Z      -4.7277
       Tot      10.6520
    Quadrupole Moments (Debye-Ang)
        XX     -32.9642     XY      -1.8107     YY       6.2326
        XZ       6.5399     YZ      -5.8315     ZZ     -24.9602

 Total job time:  1987.29s(wall), 3270.00s(cpu)
        *  Thank you very much for using Q-Chem.  Have a nice day.  *
