 Q-Chem 4.3, Q-Chem, Inc., Pleasanton, CA (2015)
 Q-Chem 4.3.0 for Intel X86 Linux

User input:
--------------------------------------------------------------
$comment
XAS calculation for the 2b valence excited for water using cvs-adc(2)-x + 6-311+G* basis set
job 1 - determination of HF orbitals
$end

$molecule
0 1
6  -0.442191  3.019804  -0.214813
9  0.578768  2.345313  -0.011027
9  -1.126779  3.260264  0.761835
9  -1.277787  0.816339  0.591822
9  -1.130899  2.550991  -1.211953
$end

$rem
jobtype      sp
sym_ignore true
exchange     hf
basis        6-31G*
unrestricted true
$end

--------------------------------------------------------------

   13    -435.3255667161      5.73E-06 Convergence criterion met
 Total energy in the final basis set = -435.3255667161
 Total job time:  3.53s(wall), 15.26s(cpu)
        *  Thank you very much for using Q-Chem.  Have a nice day.  *
 Q-Chem 4.3, Q-Chem, Inc., Pleasanton, CA (2015)
 Q-Chem 4.3.0 for Intel X86 Linux

User input:
--------------------------------------------------------------

$comment
job3 - cvs-adc(2) calculation
$end

$molecule
read
$end

$rem
mem_total 3000
mem_static 1500
sym_ignore true
scf_guess read
method cvs-adc(2)
basis 6-31G*
ee_singlets 20
cc_rest_occ 5                  !only excitations from the lowest N orbitals
unrestricted  true
max_scf_cycles 200
$end
--------------------------------------------------------------

             Standard Nuclear Orientation (Angstroms)
    I     Atom           X                Y                Z
 ----------------------------------------------------------------
    1      C      -0.4421910000     3.0198040000    -0.2148130000
    2      F       0.5787680000     2.3453130000    -0.0110270000
    3      F      -1.1267790000     3.2602640000     0.7618350000
    4      F      -1.2777870000     0.8163390000     0.5918220000
    5      F      -1.1308990000     2.5509910000    -1.2119530000
 ----------------------------------------------------------------

   11    -435.3255672929      4.13E-09 Convergence criterion met
 Total energy in the final basis set = -435.3255672929
  Term symbol:  2 (-) A                                     R^2 =  1.30185e-13
  Excitation energy:                                             292.842870 eV
  Term symbol:  3 (-) A                                     R^2 =  1.70983e-13
  Excitation energy:                                             294.544150 eV
  Term symbol:  4 (-) A                                     R^2 =  2.75964e-13
  Excitation energy:                                             302.426967 eV
  Term symbol:  5 (-) A                                     R^2 =  7.25092e-13
  Excitation energy:                                             304.084441 eV
  Term symbol:  6 (-) A                                     R^2 =  1.86814e-13
  Excitation energy:                                             304.454061 eV
  Term symbol:  7 (-) A                                     R^2 =  5.63503e-13
  Excitation energy:                                             304.801952 eV
  Term symbol:  8 (-) A                                     R^2 =  5.65542e-13
  Excitation energy:                                             306.069498 eV
  Term symbol:  9 (-) A                                     R^2 =  2.72022e-13
  Excitation energy:                                             306.788487 eV
  Term symbol:  10 (-) A                                    R^2 =  4.71102e-13
  Excitation energy:                                             311.852023 eV
  Excited state 10 (A)                                             [converged]
  Term symbol:  11 (-) A                                    R^2 =  4.94417e-13
  Excitation energy:                                             313.255345 eV
  Excited state 11 (A)                                             [converged]
  Term symbol:  12 (-) A                                    R^2 =  4.69648e-13
  Excitation energy:                                             313.381540 eV
  Excited state 12 (A)                                             [converged]
  Term symbol:  13 (-) A                                    R^2 =  3.88396e-13
  Excitation energy:                                             313.421370 eV
  Excited state 13 (A)                                             [converged]
  Term symbol:  14 (-) A                                    R^2 =  7.67579e-13
  Excitation energy:                                             313.796953 eV
  Excited state 14 (A)                                             [converged]
  Term symbol:  15 (-) A                                    R^2 =  4.52761e-13
  Excitation energy:                                             314.061295 eV
  Excited state 15 (A)                                             [converged]
  Term symbol:  16 (-) A                                    R^2 =  5.44642e-11
  Excitation energy:                                             318.504372 eV
  Excited state 16 (A)                                             [converged]
  Term symbol:  17 (-) A                                    R^2 =  1.66655e-12
  Excitation energy:                                             318.999687 eV
  Excited state 17 (A)                                         [not converged]
  Term symbol:  18 (-) A                                    R^2 =  5.34481e-06
  Excitation energy:                                             322.634225 eV
  Excited state 18 (A)                                             [converged]
  Term symbol:  19 (-) A                                    R^2 =  1.17652e-08
  Excitation energy:                                             322.651291 eV
  Excited state 19 (A)                                             [converged]
  Term symbol:  20 (-) A                                    R^2 =  5.44391e-07
  Excitation energy:                                             323.072821 eV
  Excited state 20 (A)                                         [not converged]
  Term symbol:  21 (-) A                                    R^2 =  5.67350e-03
  Excitation energy:                                             323.073192 eV

                    Orbital Energies (a.u.)
 --------------------------------------------------------------

 Alpha MOs
 -- Occupied --
-26.534 -26.522 -26.496 -25.982 -11.727  -1.931  -1.834  -1.786
 -1.240  -1.102  -1.006  -0.996  -0.944  -0.844  -0.832  -0.812
 -0.790  -0.786  -0.348  -0.348  -0.331

 Beta MOs
 -- Occupied --
-26.534 -26.522 -26.496 -25.982 -11.727  -1.931  -1.834  -1.786
 -1.240  -1.102  -1.006  -0.996  -0.944  -0.844  -0.832  -0.812
 -0.790  -0.786  -0.348  -0.348  -0.331

          Ground-State Mulliken Net Atomic Charges

     Atom                 Charge (a.u.)    Spin (a.u.)
  --------------------------------------------------------
      1 C                     1.187681       0.000000
      2 F                    -0.103989       0.000000
      3 F                    -0.071721       0.000000
      4 F                    -0.843540       0.000000
      5 F                    -0.168432       0.000000
  --------------------------------------------------------
  Sum of atomic charges =     0.000000

                    Cartesian Multipole Moments
 -----------------------------------------------------------------
    Charge (ESU x 10^10)
                 0.0000
    Dipole Moment (Debye)
         X       3.4141      Y       8.9214      Z      -2.9106
       Tot       9.9860
    Quadrupole Moments (Debye-Ang)
        XX     -28.5258     XY      -0.6732     YY      12.6662
        XZ       2.9271     YZ      -3.9687     ZZ     -24.1991

 Total job time:  1950.31s(wall), 3186.50s(cpu)
        *  Thank you very much for using Q-Chem.  Have a nice day.  *
