 Q-Chem 4.3, Q-Chem, Inc., Pleasanton, CA (2015)
 Q-Chem 4.3.0 for Intel X86 Linux

User input:
--------------------------------------------------------------
$comment
XAS calculation for the 2b valence excited for water using cvs-adc(2)-x + 6-311+G* basis set
job 1 - determination of HF orbitals
$end

$molecule
0 1
6  -0.53639  2.610217  -0.127487
9  0.593  2.343657  -0.00354
9  -1.142369  3.235557  0.793068
9  -1.202855  1.102503  0.487499
9  -1.130691  2.538091  -1.197907
$end

$rem
jobtype      sp
sym_ignore true
exchange     hf
basis        6-31G*
unrestricted true
$end

--------------------------------------------------------------

    8    -435.5111640122      8.83E-06 Convergence criterion met
 Total energy in the final basis set = -435.5111640122
 Total job time:  2.22s(wall), 10.36s(cpu)
        *  Thank you very much for using Q-Chem.  Have a nice day.  *
 Q-Chem 4.3, Q-Chem, Inc., Pleasanton, CA (2015)
 Q-Chem 4.3.0 for Intel X86 Linux

User input:
--------------------------------------------------------------

$comment
job3 - cvs-adc(2) calculation
$end

$molecule
read
$end

$rem
mem_total 3000
mem_static 1500
sym_ignore true
scf_guess read
method cvs-adc(2)
basis 6-31G*
ee_singlets 20
cc_rest_occ 5                  !only excitations from the lowest N orbitals
unrestricted  true
max_scf_cycles 200
$end
--------------------------------------------------------------

             Standard Nuclear Orientation (Angstroms)
    I     Atom           X                Y                Z
 ----------------------------------------------------------------
    1      C      -0.5363900000     2.6102170000    -0.1274870000
    2      F       0.5930000000     2.3436570000    -0.0035400000
    3      F      -1.1423690000     3.2355570000     0.7930680000
    4      F      -1.2028550000     1.1025030000     0.4874990000
    5      F      -1.1306910000     2.5380910000    -1.1979070000
 ----------------------------------------------------------------

    7    -435.5111641852      2.58E-09 Convergence criterion met
 Total energy in the final basis set = -435.5111641852
  Term symbol:  2 (-) A                                     R^2 =  1.28841e-13
  Excitation energy:                                             296.162044 eV
  Term symbol:  3 (-) A                                     R^2 =  9.87817e-14
  Excitation energy:                                             298.098777 eV
  Term symbol:  4 (-) A                                     R^2 =  1.84739e-13
  Excitation energy:                                             303.453203 eV
  Term symbol:  5 (-) A                                     R^2 =  1.94362e-13
  Excitation energy:                                             304.372983 eV
  Term symbol:  6 (-) A                                     R^2 =  8.13665e-14
  Excitation energy:                                             305.588752 eV
  Term symbol:  7 (-) A                                     R^2 =  1.41829e-13
  Excitation energy:                                             306.453805 eV
  Term symbol:  8 (-) A                                     R^2 =  2.25689e-13
  Excitation energy:                                             306.753743 eV
  Term symbol:  9 (-) A                                     R^2 =  9.25544e-14
  Excitation energy:                                             308.802154 eV
  Term symbol:  10 (-) A                                    R^2 =  5.40907e-13
  Excitation energy:                                             311.809927 eV
  Excited state 10 (A)                                             [converged]
  Term symbol:  11 (-) A                                    R^2 =  8.10153e-13
  Excitation energy:                                             313.332046 eV
  Excited state 11 (A)                                             [converged]
  Term symbol:  12 (-) A                                    R^2 =  2.95999e-13
  Excitation energy:                                             314.062226 eV
  Excited state 12 (A)                                             [converged]
  Term symbol:  13 (-) A                                    R^2 =  2.02648e-13
  Excitation energy:                                             314.422428 eV
  Excited state 13 (A)                                             [converged]
  Term symbol:  14 (-) A                                    R^2 =  2.33095e-13
  Excitation energy:                                             314.462827 eV
  Excited state 14 (A)                                             [converged]
  Term symbol:  15 (-) A                                    R^2 =  2.89058e-13
  Excitation energy:                                             314.953995 eV
  Excited state 15 (A)                                             [converged]
  Term symbol:  16 (-) A                                    R^2 =  1.11380e-12
  Excitation energy:                                             317.788628 eV
  Excited state 16 (A)                                             [converged]
  Term symbol:  17 (-) A                                    R^2 =  2.24992e-12
  Excitation energy:                                             318.216735 eV
  Excited state 17 (A)                                             [converged]
  Term symbol:  18 (-) A                                    R^2 =  5.51718e-08
  Excitation energy:                                             330.495604 eV
  Excited state 18 (A)                                             [converged]
  Term symbol:  19 (-) A                                    R^2 =  5.55201e-08
  Excitation energy:                                             330.673129 eV
  Excited state 19 (A)                                         [not converged]
  Term symbol:  20 (-) A                                    R^2 =  3.36295e-06
  Excitation energy:                                             331.490143 eV
  Excited state 20 (A)                                         [not converged]
  Term symbol:  21 (-) A                                    R^2 =  1.96517e-05
  Excitation energy:                                             331.607281 eV

                    Orbital Energies (a.u.)
 --------------------------------------------------------------

 Alpha MOs
 -- Occupied --
-26.475 -26.442 -26.417 -26.160 -11.650  -1.901  -1.799  -1.743
 -1.422  -1.054  -0.970  -0.958  -0.913  -0.800  -0.792  -0.786
 -0.757  -0.731  -0.510  -0.508  -0.501

 Beta MOs
 -- Occupied --
-26.475 -26.442 -26.417 -26.160 -11.650  -1.901  -1.799  -1.743
 -1.422  -1.054  -0.970  -0.958  -0.913  -0.800  -0.792  -0.786
 -0.757  -0.731  -0.510  -0.508  -0.501

          Ground-State Mulliken Net Atomic Charges

     Atom                 Charge (a.u.)    Spin (a.u.)
  --------------------------------------------------------
      1 C                     1.201691       0.000000
      2 F                    -0.118893       0.000000
      3 F                    -0.245982       0.000000
      4 F                    -0.637895       0.000000
      5 F                    -0.198920       0.000000
  --------------------------------------------------------
  Sum of atomic charges =     0.000000

                    Cartesian Multipole Moments
 -----------------------------------------------------------------
    Charge (ESU x 10^10)
                 0.0000
    Dipole Moment (Debye)
         X       2.1879      Y       3.7472      Z      -1.7575
       Tot       4.6816
    Quadrupole Moments (Debye-Ang)
        XX     -26.8128     XY       1.4282     YY      -9.3452
        XZ       1.7205     YZ      -3.0803     ZZ     -24.2832

 Total job time:  2101.11s(wall), 3472.15s(cpu)
        *  Thank you very much for using Q-Chem.  Have a nice day.  *
