 Q-Chem 4.3, Q-Chem, Inc., Pleasanton, CA (2015)
 Q-Chem 4.3.0 for Intel X86 Linux

User input:
--------------------------------------------------------------
$comment
XAS calculation for the 2b valence excited for water using cvs-adc(2)-x + 6-311+G* basis set
job 1 - determination of HF orbitals
$end

$molecule
0 1
6  -0.448446  2.964117  -0.240998
9  0.492561  2.257246  0.054926
9  -1.155652  3.407333  0.795958
9  -1.121791  0.770168  0.510626
9  -1.175874  2.577565  -1.205186
$end

$rem
jobtype      sp
sym_ignore true
exchange     hf
basis        6-31G*
unrestricted true
$end

--------------------------------------------------------------

   14    -435.3336696452      4.60E-06 Convergence criterion met
 Total energy in the final basis set = -435.3336696452
 Total job time:  3.54s(wall), 17.90s(cpu)
        *  Thank you very much for using Q-Chem.  Have a nice day.  *
 Q-Chem 4.3, Q-Chem, Inc., Pleasanton, CA (2015)
 Q-Chem 4.3.0 for Intel X86 Linux

User input:
--------------------------------------------------------------

$comment
job3 - cvs-adc(2) calculation
$end

$molecule
read
$end

$rem
mem_total 3000
mem_static 1500
sym_ignore true
scf_guess read
method cvs-adc(2)
basis 6-31G*
ee_singlets 20
cc_rest_occ 5                  !only excitations from the lowest N orbitals
unrestricted  true
max_scf_cycles 200
$end
--------------------------------------------------------------

             Standard Nuclear Orientation (Angstroms)
    I     Atom           X                Y                Z
 ----------------------------------------------------------------
    1      C      -0.4484460000     2.9641170000    -0.2409980000
    2      F       0.4925610000     2.2572460000     0.0549260000
    3      F      -1.1556520000     3.4073330000     0.7959580000
    4      F      -1.1217910000     0.7701680000     0.5106260000
    5      F      -1.1758740000     2.5775650000    -1.2051860000
 ----------------------------------------------------------------

   10    -435.3336701375      6.25E-09 Convergence criterion met
 Total energy in the final basis set = -435.3336701375
  Term symbol:  2 (-) A                                     R^2 =  1.56695e-08
  Excitation energy:                                             292.951462 eV
  Term symbol:  3 (-) A                                     R^2 =  5.43744e-08
  Excitation energy:                                             294.684882 eV
  Term symbol:  4 (-) A                                     R^2 =  1.18067e-08
  Excitation energy:                                             301.820730 eV
  Term symbol:  5 (-) A                                     R^2 =  1.02950e-08
  Excitation energy:                                             303.378056 eV
  Term symbol:  6 (-) A                                     R^2 =  2.51346e-09
  Excitation energy:                                             303.921936 eV
  Term symbol:  7 (-) A                                     R^2 =  2.63748e-09
  Excitation energy:                                             304.885991 eV
  Term symbol:  8 (-) A                                     R^2 =  5.73826e-09
  Excitation energy:                                             305.451669 eV
  Term symbol:  9 (-) A                                     R^2 =  1.88822e-08
  Excitation energy:                                             306.770795 eV
  Term symbol:  10 (-) A                                    R^2 =  8.95186e-08
  Excitation energy:                                             312.096265 eV
  Excited state 10 (A)                                             [converged]
  Term symbol:  11 (-) A                                    R^2 =  1.20193e-07
  Excitation energy:                                             313.527665 eV
  Excited state 11 (A)                                             [converged]
  Term symbol:  12 (-) A                                    R^2 =  1.49437e-08
  Excitation energy:                                             313.741757 eV
  Excited state 12 (A)                                             [converged]
  Term symbol:  13 (-) A                                    R^2 =  2.74978e-08
  Excitation energy:                                             313.834617 eV
  Excited state 13 (A)                                             [converged]
  Term symbol:  14 (-) A                                    R^2 =  1.33142e-08
  Excitation energy:                                             314.232474 eV
  Excited state 14 (A)                                             [converged]
  Term symbol:  15 (-) A                                    R^2 =  1.99085e-08
  Excitation energy:                                             314.465913 eV
  Excited state 15 (A)                                             [converged]
  Term symbol:  16 (-) A                                    R^2 =  1.34228e-08
  Excitation energy:                                             319.049805 eV
  Excited state 16 (A)                                             [converged]
  Term symbol:  17 (-) A                                    R^2 =  2.70788e-08
  Excitation energy:                                             319.600369 eV
  Excited state 17 (A)                                         [not converged]
  Term symbol:  18 (-) A                                    R^2 =  2.35319e-04
  Excitation energy:                                             323.379061 eV
  Excited state 18 (A)                                         [not converged]
  Term symbol:  19 (-) A                                    R^2 =  3.43320e-06
  Excitation energy:                                             323.390030 eV
  Excited state 19 (A)                                         [not converged]
  Term symbol:  20 (-) A                                    R^2 =  1.57434e-02
  Excitation energy:                                             323.761845 eV
  Excited state 20 (A)                                         [not converged]
  Term symbol:  21 (-) A                                    R^2 =  2.45178e-02
  Excitation energy:                                             323.765040 eV

                    Orbital Energies (a.u.)
 --------------------------------------------------------------

 Alpha MOs
 -- Occupied --
-26.538 -26.516 -26.496 -25.983 -11.734  -1.918  -1.823  -1.776
 -1.245  -1.097  -0.995  -0.987  -0.932  -0.838  -0.825  -0.809
 -0.793  -0.787  -0.352  -0.351  -0.337

 Beta MOs
 -- Occupied --
-26.538 -26.516 -26.496 -25.983 -11.734  -1.918  -1.823  -1.776
 -1.245  -1.097  -0.995  -0.987  -0.932  -0.838  -0.825  -0.809
 -0.793  -0.787  -0.352  -0.351  -0.337

          Ground-State Mulliken Net Atomic Charges

     Atom                 Charge (a.u.)    Spin (a.u.)
  --------------------------------------------------------
      1 C                     1.226861       0.000000
      2 F                    -0.037007       0.000000
      3 F                    -0.205094       0.000000
      4 F                    -0.848703       0.000000
      5 F                    -0.136057       0.000000
  --------------------------------------------------------
  Sum of atomic charges =     0.000000

                    Cartesian Multipole Moments
 -----------------------------------------------------------------
    Charge (ESU x 10^10)
                 0.0000
    Dipole Moment (Debye)
         X       3.1824      Y       8.5425      Z      -3.2070
       Tot       9.6636
    Quadrupole Moments (Debye-Ang)
        XX     -27.3245     XY      -0.0652     YY       9.3050
        XZ       2.7659     YZ      -5.4574     ZZ     -23.7600

 Total job time:  2291.76s(wall), 3698.06s(cpu)
        *  Thank you very much for using Q-Chem.  Have a nice day.  *
