 Q-Chem 4.3, Q-Chem, Inc., Pleasanton, CA (2015)
 Q-Chem 4.3.0 for Intel X86 Linux

User input:
--------------------------------------------------------------
$comment
XAS calculation for the 2b valence excited for water using cvs-adc(2)-x + 6-311+G* basis set
job 1 - determination of HF orbitals
$end

$molecule
0 1
6  -0.606405  2.7875  -0.152502
9  0.627425  2.48856  -0.045246
9  -1.090964  3.505013  0.712305
9  -1.341663  0.378477  0.714924
9  -1.0914  2.769499  -1.273412
$end

$rem
jobtype      sp
sym_ignore true
exchange     hf
basis        6-31G*
unrestricted true
$end

--------------------------------------------------------------

   10    -435.3977095502      5.69E-06 Convergence criterion met
 Total energy in the final basis set = -435.3977095502
 Total job time:  2.68s(wall), 11.58s(cpu)
        *  Thank you very much for using Q-Chem.  Have a nice day.  *
 Q-Chem 4.3, Q-Chem, Inc., Pleasanton, CA (2015)
 Q-Chem 4.3.0 for Intel X86 Linux

User input:
--------------------------------------------------------------

$comment
job3 - cvs-adc(2) calculation
$end

$molecule
read
$end

$rem
mem_total 3000
mem_static 1500
sym_ignore true
scf_guess read
method cvs-adc(2)
basis 6-31G*
ee_singlets 20
cc_rest_occ 5                  !only excitations from the lowest N orbitals
unrestricted  true
max_scf_cycles 200
$end
--------------------------------------------------------------

             Standard Nuclear Orientation (Angstroms)
    I     Atom           X                Y                Z
 ----------------------------------------------------------------
    1      C      -0.6064050000     2.7875000000    -0.1525020000
    2      F       0.6274250000     2.4885600000    -0.0452460000
    3      F      -1.0909640000     3.5050130000     0.7123050000
    4      F      -1.3416630000     0.3784770000     0.7149240000
    5      F      -1.0914000000     2.7694990000    -1.2734120000
 ----------------------------------------------------------------

    7    -435.3977098075      7.34E-09 Convergence criterion met
 Total energy in the final basis set = -435.3977098075
  Term symbol:  2 (-) A                                     R^2 =  1.08325e-13
  Excitation energy:                                             294.691777 eV
  Term symbol:  3 (-) A                                     R^2 =  4.05999e-13
  Excitation energy:                                             296.654080 eV
  Term symbol:  4 (-) A                                     R^2 =  8.94971e-13
  Excitation energy:                                             302.829823 eV
  Term symbol:  5 (-) A                                     R^2 =  2.08167e-13
  Excitation energy:                                             304.317520 eV
  Term symbol:  6 (-) A                                     R^2 =  1.07800e-13
  Excitation energy:                                             304.665346 eV
  Term symbol:  7 (-) A                                     R^2 =  3.29989e-14
  Excitation energy:                                             305.323388 eV
  Term symbol:  8 (-) A                                     R^2 =  1.35757e-13
  Excitation energy:                                             306.376736 eV
  Term symbol:  9 (-) A                                     R^2 =  7.06055e-14
  Excitation energy:                                             307.475502 eV
  Term symbol:  10 (-) A                                    R^2 =  1.91854e-13
  Excitation energy:                                             312.947664 eV
  Excited state 10 (A)                                             [converged]
  Term symbol:  11 (-) A                                    R^2 =  2.28286e-13
  Excitation energy:                                             314.109107 eV
  Excited state 11 (A)                                             [converged]
  Term symbol:  12 (-) A                                    R^2 =  7.02144e-13
  Excitation energy:                                             314.625427 eV
  Excited state 12 (A)                                             [converged]
  Term symbol:  13 (-) A                                    R^2 =  1.14473e-13
  Excitation energy:                                             314.835984 eV
  Excited state 13 (A)                                             [converged]
  Term symbol:  14 (-) A                                    R^2 =  1.51078e-13
  Excitation energy:                                             315.051225 eV
  Excited state 14 (A)                                             [converged]
  Term symbol:  15 (-) A                                    R^2 =  2.40638e-13
  Excitation energy:                                             315.282125 eV
  Excited state 15 (A)                                             [converged]
  Term symbol:  16 (-) A                                    R^2 =  2.06828e-12
  Excitation energy:                                             316.363559 eV
  Excited state 16 (A)                                             [converged]
  Term symbol:  17 (-) A                                    R^2 =  8.22590e-12
  Excitation energy:                                             317.362481 eV
  Excited state 17 (A)                                         [not converged]
  Term symbol:  18 (-) A                                    R^2 =  2.37827e-05
  Excitation energy:                                             329.832166 eV
  Excited state 18 (A)                                             [converged]
  Term symbol:  19 (-) A                                    R^2 =  1.75276e-07
  Excitation energy:                                             329.862817 eV
  Excited state 19 (A)                                         [not converged]
  Term symbol:  20 (-) A                                    R^2 =  4.71719e-06
  Excitation energy:                                             331.731540 eV
  Excited state 20 (A)                                         [not converged]
  Term symbol:  21 (-) A                                    R^2 =  1.15819e-05
  Excitation energy:                                             331.898605 eV

                    Orbital Energies (a.u.)
 --------------------------------------------------------------

 Alpha MOs
 -- Occupied --
-26.536 -26.536 -26.507 -26.048 -11.738  -1.945  -1.856  -1.816
 -1.282  -1.114  -1.026  -1.016  -0.963  -0.862  -0.856  -0.841
 -0.819  -0.805  -0.396  -0.396  -0.358

 Beta MOs
 -- Occupied --
-26.536 -26.536 -26.507 -26.048 -11.738  -1.945  -1.856  -1.816
 -1.282  -1.114  -1.026  -1.016  -0.963  -0.862  -0.856  -0.841
 -0.819  -0.805  -0.396  -0.396  -0.358

          Ground-State Mulliken Net Atomic Charges

     Atom                 Charge (a.u.)    Spin (a.u.)
  --------------------------------------------------------
      1 C                     1.146004       0.000000
      2 F                    -0.178830       0.000000
      3 F                    -0.125829       0.000000
      4 F                    -0.718695       0.000000
      5 F                    -0.122650       0.000000
  --------------------------------------------------------
  Sum of atomic charges =     0.000000

                    Cartesian Multipole Moments
 -----------------------------------------------------------------
    Charge (ESU x 10^10)
                 0.0000
    Dipole Moment (Debye)
         X       2.2758      Y       8.3078      Z      -2.9968
       Tot       9.1203
    Quadrupole Moments (Debye-Ang)
        XX     -27.7626     XY      -4.4563     YY       4.1972
        XZ       3.5464     YZ      -2.7296     ZZ     -24.5358

 Total job time:  2132.43s(wall), 3491.45s(cpu)
        *  Thank you very much for using Q-Chem.  Have a nice day.  *
