 Q-Chem 4.3, Q-Chem, Inc., Pleasanton, CA (2015)
 Q-Chem 4.3.0 for Intel X86 Linux

User input:
--------------------------------------------------------------
$comment
XAS calculation for the 2b valence excited for water using cvs-adc(2)-x + 6-311+G* basis set
job 1 - determination of HF orbitals
$end

$molecule
0 1
6  -0.559504  2.731825  -0.178569
9  0.659339  2.538304  -0.083234
9  -1.064322  3.439015  0.705586
9  -1.435975  0.419367  0.762217
9  -1.042943  2.759651  -1.274015
$end

$rem
jobtype      sp
sym_ignore true
exchange     hf
basis        6-31G*
unrestricted true
$end

--------------------------------------------------------------

    9    -435.3990079474      9.73E-06 Convergence criterion met
 Total energy in the final basis set = -435.3990079474
 Total job time:  2.49s(wall), 11.78s(cpu)
        *  Thank you very much for using Q-Chem.  Have a nice day.  *
 Q-Chem 4.3, Q-Chem, Inc., Pleasanton, CA (2015)
 Q-Chem 4.3.0 for Intel X86 Linux

User input:
--------------------------------------------------------------

$comment
job3 - cvs-adc(2) calculation
$end

$molecule
read
$end

$rem
mem_total 3000
mem_static 1500
sym_ignore true
scf_guess read
method cvs-adc(2)
basis 6-31G*
ee_singlets 20
cc_rest_occ 5                  !only excitations from the lowest N orbitals
unrestricted  true
max_scf_cycles 200
$end
--------------------------------------------------------------

             Standard Nuclear Orientation (Angstroms)
    I     Atom           X                Y                Z
 ----------------------------------------------------------------
    1      C      -0.5595040000     2.7318250000    -0.1785690000
    2      F       0.6593390000     2.5383040000    -0.0832340000
    3      F      -1.0643220000     3.4390150000     0.7055860000
    4      F      -1.4359750000     0.4193670000     0.7622170000
    5      F      -1.0429430000     2.7596510000    -1.2740150000
 ----------------------------------------------------------------

    8    -435.3990082867      3.00E-09 Convergence criterion met
 Total energy in the final basis set = -435.3990082867
  Term symbol:  2 (-) A                                     R^2 =  8.11015e-14
  Excitation energy:                                             294.682046 eV
  Term symbol:  3 (-) A                                     R^2 =  2.27667e-13
  Excitation energy:                                             296.659184 eV
  Term symbol:  4 (-) A                                     R^2 =  1.77327e-13
  Excitation energy:                                             303.688280 eV
  Term symbol:  5 (-) A                                     R^2 =  9.20580e-14
  Excitation energy:                                             304.539362 eV
  Term symbol:  6 (-) A                                     R^2 =  2.51558e-13
  Excitation energy:                                             305.419521 eV
  Term symbol:  7 (-) A                                     R^2 =  8.08350e-14
  Excitation energy:                                             305.654899 eV
  Term symbol:  8 (-) A                                     R^2 =  1.35991e-13
  Excitation energy:                                             306.695492 eV
  Term symbol:  9 (-) A                                     R^2 =  3.60059e-13
  Excitation energy:                                             307.730990 eV
  Term symbol:  10 (-) A                                    R^2 =  1.45297e-13
  Excitation energy:                                             312.889223 eV
  Excited state 10 (A)                                             [converged]
  Term symbol:  11 (-) A                                    R^2 =  2.95911e-13
  Excitation energy:                                             314.066809 eV
  Excited state 11 (A)                                             [converged]
  Term symbol:  12 (-) A                                    R^2 =  5.07802e-13
  Excitation energy:                                             314.500395 eV
  Excited state 12 (A)                                             [converged]
  Term symbol:  13 (-) A                                    R^2 =  4.98885e-13
  Excitation energy:                                             314.636003 eV
  Excited state 13 (A)                                             [converged]
  Term symbol:  14 (-) A                                    R^2 =  2.72906e-13
  Excitation energy:                                             314.908503 eV
  Excited state 14 (A)                                             [converged]
  Term symbol:  15 (-) A                                    R^2 =  4.43375e-13
  Excitation energy:                                             315.116458 eV
  Excited state 15 (A)                                             [converged]
  Term symbol:  16 (-) A                                    R^2 =  4.33690e-13
  Excitation energy:                                             316.143771 eV
  Excited state 16 (A)                                             [converged]
  Term symbol:  17 (-) A                                    R^2 =  1.65797e-12
  Excitation energy:                                             317.215234 eV
  Excited state 17 (A)                                             [converged]
  Term symbol:  18 (-) A                                    R^2 =  1.32559e-08
  Excitation energy:                                             329.902782 eV
  Excited state 18 (A)                                             [converged]
  Term symbol:  19 (-) A                                    R^2 =  8.29824e-09
  Excitation energy:                                             329.936438 eV
  Excited state 19 (A)                                             [converged]
  Term symbol:  20 (-) A                                    R^2 =  8.25775e-07
  Excitation energy:                                             331.506509 eV
  Excited state 20 (A)                                             [converged]
  Term symbol:  21 (-) A                                    R^2 =  6.74084e-07
  Excitation energy:                                             331.669158 eV

                    Orbital Energies (a.u.)
 --------------------------------------------------------------

 Alpha MOs
 -- Occupied --
-26.537 -26.516 -26.514 -26.058 -11.730  -1.955  -1.852  -1.828
 -1.290  -1.115  -1.028  -1.023  -0.968  -0.861  -0.860  -0.835
 -0.823  -0.804  -0.404  -0.404  -0.364

 Beta MOs
 -- Occupied --
-26.537 -26.516 -26.514 -26.058 -11.730  -1.955  -1.852  -1.828
 -1.290  -1.115  -1.028  -1.023  -0.968  -0.861  -0.860  -0.835
 -0.823  -0.804  -0.404  -0.404  -0.364

          Ground-State Mulliken Net Atomic Charges

     Atom                 Charge (a.u.)    Spin (a.u.)
  --------------------------------------------------------
      1 C                     1.107357       0.000000
      2 F                    -0.150805       0.000000
      3 F                    -0.151392       0.000000
      4 F                    -0.704796       0.000000
      5 F                    -0.100365       0.000000
  --------------------------------------------------------
  Sum of atomic charges =     0.000000

                    Cartesian Multipole Moments
 -----------------------------------------------------------------
    Charge (ESU x 10^10)
                 0.0000
    Dipole Moment (Debye)
         X       2.8252      Y       7.6727      Z      -3.3269
       Tot       8.8273
    Quadrupole Moments (Debye-Ang)
        XX     -28.7934     XY      -3.0345     YY       1.6750
        XZ       4.0790     YZ      -3.5129     ZZ     -24.6772

 Total job time:  2007.71s(wall), 3257.50s(cpu)
        *  Thank you very much for using Q-Chem.  Have a nice day.  *
