 Q-Chem 4.3, Q-Chem, Inc., Pleasanton, CA (2015)
 Q-Chem 4.3.0 for Intel X86 Linux

User input:
--------------------------------------------------------------
$comment
XAS calculation for the 2b valence excited for water using cvs-adc(2)-x + 6-311+G* basis set
job 1 - determination of HF orbitals
$end

$molecule
0 1
6  -0.47768  2.729679  -0.183685
9  0.722717  2.622289  -0.142407
9  -1.055987  3.250284  0.717282
9  -1.597061  0.542066  0.833597
9  -0.992074  2.732426  -1.293858
$end

$rem
jobtype      sp
sym_ignore true
exchange     hf
basis        6-31G*
unrestricted true
$end

--------------------------------------------------------------

   10    -435.3940668792      2.86E-06 Convergence criterion met
 Total energy in the final basis set = -435.3940668792
 Total job time:  2.83s(wall), 12.26s(cpu)
        *  Thank you very much for using Q-Chem.  Have a nice day.  *
 Q-Chem 4.3, Q-Chem, Inc., Pleasanton, CA (2015)
 Q-Chem 4.3.0 for Intel X86 Linux

User input:
--------------------------------------------------------------

$comment
job3 - cvs-adc(2) calculation
$end

$molecule
read
$end

$rem
mem_total 3000
mem_static 1500
sym_ignore true
scf_guess read
method cvs-adc(2)
basis 6-31G*
ee_singlets 20
cc_rest_occ 5                  !only excitations from the lowest N orbitals
unrestricted  true
max_scf_cycles 200
$end
--------------------------------------------------------------

             Standard Nuclear Orientation (Angstroms)
    I     Atom           X                Y                Z
 ----------------------------------------------------------------
    1      C      -0.4776800000     2.7296790000    -0.1836850000
    2      F       0.7227170000     2.6222890000    -0.1424070000
    3      F      -1.0559870000     3.2502840000     0.7172820000
    4      F      -1.5970610000     0.5420660000     0.8335970000
    5      F      -0.9920740000     2.7324260000    -1.2938580000
 ----------------------------------------------------------------

    7    -435.3940672547      2.28E-09 Convergence criterion met
 Total energy in the final basis set = -435.3940672547
  Term symbol:  2 (-) A                                     R^2 =  2.53125e-08
  Excitation energy:                                             294.819323 eV
  Term symbol:  3 (-) A                                     R^2 =  1.71701e-08
  Excitation energy:                                             296.809372 eV
  Term symbol:  4 (-) A                                     R^2 =  1.62515e-09
  Excitation energy:                                             303.951174 eV
  Term symbol:  5 (-) A                                     R^2 =  4.81536e-10
  Excitation energy:                                             305.405536 eV
  Term symbol:  6 (-) A                                     R^2 =  7.87004e-09
  Excitation energy:                                             305.515479 eV
  Term symbol:  7 (-) A                                     R^2 =  3.89111e-09
  Excitation energy:                                             306.364092 eV
  Term symbol:  8 (-) A                                     R^2 =  7.57536e-09
  Excitation energy:                                             307.590801 eV
  Term symbol:  9 (-) A                                     R^2 =  1.09591e-08
  Excitation energy:                                             308.510608 eV
  Term symbol:  10 (-) A                                    R^2 =  2.11788e-09
  Excitation energy:                                             312.809472 eV
  Excited state 10 (A)                                             [converged]
  Term symbol:  11 (-) A                                    R^2 =  1.50241e-08
  Excitation energy:                                             314.101698 eV
  Excited state 11 (A)                                             [converged]
  Term symbol:  12 (-) A                                    R^2 =  2.54897e-09
  Excitation energy:                                             314.533381 eV
  Excited state 12 (A)                                             [converged]
  Term symbol:  13 (-) A                                    R^2 =  7.34761e-09
  Excitation energy:                                             314.713600 eV
  Excited state 13 (A)                                             [converged]
  Term symbol:  14 (-) A                                    R^2 =  5.71513e-09
  Excitation energy:                                             315.039176 eV
  Excited state 14 (A)                                             [converged]
  Term symbol:  15 (-) A                                    R^2 =  1.43574e-08
  Excitation energy:                                             315.133896 eV
  Excited state 15 (A)                                             [converged]
  Term symbol:  16 (-) A                                    R^2 =  1.58126e-08
  Excitation energy:                                             316.595437 eV
  Excited state 16 (A)                                             [converged]
  Term symbol:  17 (-) A                                    R^2 =  2.39159e-08
  Excitation energy:                                             317.613546 eV
  Excited state 17 (A)                                         [not converged]
  Term symbol:  18 (-) A                                    R^2 =  3.63524e-05
  Excitation energy:                                             330.379341 eV
  Excited state 18 (A)                                         [not converged]
  Term symbol:  19 (-) A                                    R^2 =  2.50684e-04
  Excitation energy:                                             330.398562 eV
  Excited state 19 (A)                                         [not converged]
  Term symbol:  20 (-) A                                    R^2 =  1.27975e-02
  Excitation energy:                                             331.088775 eV
  Excited state 20 (A)                                         [not converged]
  Term symbol:  21 (-) A                                    R^2 =  3.70892e-02
  Excitation energy:                                             331.097760 eV

                    Orbital Energies (a.u.)
 --------------------------------------------------------------

 Alpha MOs
 -- Occupied --
-26.541 -26.530 -26.526 -26.024 -11.735  -1.975  -1.869  -1.853
 -1.264  -1.124  -1.044  -1.041  -0.986  -0.877  -0.869  -0.845
 -0.837  -0.815  -0.377  -0.377  -0.348

 Beta MOs
 -- Occupied --
-26.541 -26.530 -26.526 -26.024 -11.735  -1.975  -1.869  -1.853
 -1.264  -1.124  -1.044  -1.041  -0.986  -0.877  -0.869  -0.845
 -0.837  -0.815  -0.377  -0.377  -0.348

          Ground-State Mulliken Net Atomic Charges

     Atom                 Charge (a.u.)    Spin (a.u.)
  --------------------------------------------------------
      1 C                     1.089933       0.000000
      2 F                    -0.116258       0.000000
      3 F                    -0.076720       0.000000
      4 F                    -0.762444       0.000000
      5 F                    -0.134511       0.000000
  --------------------------------------------------------
  Sum of atomic charges =     0.000000

                    Cartesian Multipole Moments
 -----------------------------------------------------------------
    Charge (ESU x 10^10)
                 0.0000
    Dipole Moment (Debye)
         X       4.0404      Y       7.9348      Z      -3.5160
       Tot       9.5733
    Quadrupole Moments (Debye-Ang)
        XX     -31.1560     XY      -1.4047     YY       3.7924
        XZ       4.8517     YZ      -3.2091     ZZ     -25.2433

 Total job time:  2128.43s(wall), 3436.43s(cpu)
        *  Thank you very much for using Q-Chem.  Have a nice day.  *
