 Q-Chem 4.3, Q-Chem, Inc., Pleasanton, CA (2015)
 Q-Chem 4.3.0 for Intel X86 Linux

User input:
--------------------------------------------------------------
$comment
XAS calculation for the 2b valence excited for water using cvs-adc(2)-x + 6-311+G* basis set
job 1 - determination of HF orbitals
$end

$molecule
0 1
6  -0.421058  3.012187  -0.283481
9  0.490729  2.350319  0.009493
9  -1.159789  3.309298  0.783093
9  -1.22045  0.752738  0.570614
9  -1.136404  2.59448  -1.165316
$end

$rem
jobtype      sp
sym_ignore true
exchange     hf
basis        6-31G*
unrestricted true
$end

--------------------------------------------------------------

   15    -435.3055302024      3.49E-06 Convergence criterion met
 Total energy in the final basis set = -435.3055302024
 Total job time:  6.71s(wall), 17.51s(cpu)
        *  Thank you very much for using Q-Chem.  Have a nice day.  *
 Q-Chem 4.3, Q-Chem, Inc., Pleasanton, CA (2015)
 Q-Chem 4.3.0 for Intel X86 Linux

User input:
--------------------------------------------------------------

$comment
job3 - cvs-adc(2) calculation
$end

$molecule
read
$end

$rem
mem_total 3000
mem_static 1500
sym_ignore true
scf_guess read
method cvs-adc(2)
basis 6-31G*
ee_singlets 20
cc_rest_occ 5                  !only excitations from the lowest N orbitals
unrestricted  true
max_scf_cycles 200
$end
--------------------------------------------------------------

             Standard Nuclear Orientation (Angstroms)
    I     Atom           X                Y                Z
 ----------------------------------------------------------------
    1      C      -0.4210580000     3.0121870000    -0.2834810000
    2      F       0.4907290000     2.3503190000     0.0094930000
    3      F      -1.1597890000     3.3092980000     0.7830930000
    4      F      -1.2204500000     0.7527380000     0.5706140000
    5      F      -1.1364040000     2.5944800000    -1.1653160000
 ----------------------------------------------------------------

    9    -435.3055303602      6.25E-09 Convergence criterion met
 Total energy in the final basis set = -435.3055303602
  Term symbol:  2 (-) A                                     R^2 =  4.33298e-04
  Excitation energy:                                             292.968909 eV
  Term symbol:  3 (-) A                                     R^2 =  6.75133e-04
  Excitation energy:                                             294.612123 eV
  Term symbol:  4 (-) A                                     R^2 =  1.55069e-04
  Excitation energy:                                             301.596493 eV
  Term symbol:  5 (-) A                                     R^2 =  3.74934e-04
  Excitation energy:                                             303.674044 eV
  Term symbol:  6 (-) A                                     R^2 =  9.55371e-06
  Excitation energy:                                             304.853068 eV
  Term symbol:  7 (-) A                                     R^2 =  4.92148e-04
  Excitation energy:                                             306.194261 eV
  Term symbol:  8 (-) A                                     R^2 =  3.52067e-04
  Excitation energy:                                             306.761588 eV
  Term symbol:  9 (-) A                                     R^2 =  3.10170e-04
  Excitation energy:                                             307.810317 eV
  Term symbol:  10 (-) A                                    R^2 =  1.29113e-03
  Excitation energy:                                             311.644443 eV
  Excited state 10 (A)                                         [not converged]
  Term symbol:  11 (-) A                                    R^2 =  1.14651e-04
  Excitation energy:                                             312.637293 eV
  Excited state 11 (A)                                         [not converged]
  Term symbol:  12 (-) A                                    R^2 =  3.70977e-04
  Excitation energy:                                             313.065618 eV
  Excited state 12 (A)                                         [not converged]
  Term symbol:  13 (-) A                                    R^2 =  1.05711e-04
  Excitation energy:                                             313.107412 eV
  Excited state 13 (A)                                         [not converged]
  Term symbol:  14 (-) A                                    R^2 =  7.38427e-04
  Excitation energy:                                             313.360484 eV
  Excited state 14 (A)                                         [not converged]
  Term symbol:  15 (-) A                                    R^2 =  3.01048e-04
  Excitation energy:                                             313.963854 eV
  Excited state 15 (A)                                         [not converged]
  Term symbol:  16 (-) A                                    R^2 =  1.01673e-04
  Excitation energy:                                             317.490877 eV
  Excited state 16 (A)                                         [not converged]
  Term symbol:  17 (-) A                                    R^2 =  1.70287e-04
  Excitation energy:                                             318.021417 eV
  Excited state 17 (A)                                         [not converged]
  Term symbol:  18 (-) A                                    R^2 =  4.75763e-04
  Excitation energy:                                             322.474709 eV
  Excited state 18 (A)                                         [not converged]
  Term symbol:  19 (-) A                                    R^2 =  1.46596e-04
  Excitation energy:                                             322.503134 eV
  Excited state 19 (A)                                         [not converged]
  Term symbol:  20 (-) A                                    R^2 =  1.38842e-01
  Excitation energy:                                             323.337994 eV
  Excited state 20 (A)                                         [not converged]
  Term symbol:  21 (-) A                                    R^2 =  3.39867e-01
  Excitation energy:                                             324.785011 eV

                    Orbital Energies (a.u.)
 --------------------------------------------------------------

 Alpha MOs
 -- Occupied --
-26.544 -26.523 -26.471 -25.999 -11.711  -1.964  -1.857  -1.758
 -1.252  -1.109  -1.020  -1.002  -0.961  -0.852  -0.820  -0.818
 -0.774  -0.771  -0.361  -0.360  -0.334

 Beta MOs
 -- Occupied --
-26.544 -26.523 -26.471 -25.999 -11.711  -1.964  -1.857  -1.758
 -1.252  -1.109  -1.020  -1.002  -0.961  -0.852  -0.820  -0.818
 -0.774  -0.771  -0.361  -0.360  -0.334

          Ground-State Mulliken Net Atomic Charges

     Atom                 Charge (a.u.)    Spin (a.u.)
  --------------------------------------------------------
      1 C                     1.099399       0.000000
      2 F                     0.001205       0.000000
      3 F                    -0.210490       0.000000
      4 F                    -0.810476       0.000000
      5 F                    -0.079637       0.000000
  --------------------------------------------------------
  Sum of atomic charges =     0.000000

                    Cartesian Multipole Moments
 -----------------------------------------------------------------
    Charge (ESU x 10^10)
                 0.0000
    Dipole Moment (Debye)
         X       3.5731      Y       8.3725      Z      -3.6475
       Tot       9.8066
    Quadrupole Moments (Debye-Ang)
        XX     -28.0246     XY       0.7195     YY       9.0135
        XZ       3.2967     YZ      -6.5590     ZZ     -23.7278

 Total job time:  2203.76s(wall), 3589.78s(cpu)
        *  Thank you very much for using Q-Chem.  Have a nice day.  *
