 Q-Chem 4.3, Q-Chem, Inc., Pleasanton, CA (2015)
 Q-Chem 4.3.0 for Intel X86 Linux

User input:
--------------------------------------------------------------
$comment
XAS calculation for the 2b valence excited for water using cvs-adc(2)-x + 6-311+G* basis set
job 1 - determination of HF orbitals
$end

$molecule
0 1
6  -0.587294  2.776465  -0.138089
9  0.533162  2.270691  0.037622
9  -1.142136  3.325204  0.785408
9  -1.1093  0.992269  0.45681
9  -1.155455  2.54326  -1.188154
$end

$rem
jobtype      sp
sym_ignore true
exchange     hf
basis        6-31G*
unrestricted true
$end

--------------------------------------------------------------

    8    -435.4489247163      6.67E-06 Convergence criterion met
 Total energy in the final basis set = -435.4489247163
 Total job time:  2.28s(wall), 9.98s(cpu)
        *  Thank you very much for using Q-Chem.  Have a nice day.  *
 Q-Chem 4.3, Q-Chem, Inc., Pleasanton, CA (2015)
 Q-Chem 4.3.0 for Intel X86 Linux

User input:
--------------------------------------------------------------

$comment
job3 - cvs-adc(2) calculation
$end

$molecule
read
$end

$rem
mem_total 3000
mem_static 1500
sym_ignore true
scf_guess read
method cvs-adc(2)
basis 6-31G*
ee_singlets 20
cc_rest_occ 5                  !only excitations from the lowest N orbitals
unrestricted  true
max_scf_cycles 200
$end
--------------------------------------------------------------

             Standard Nuclear Orientation (Angstroms)
    I     Atom           X                Y                Z
 ----------------------------------------------------------------
    1      C      -0.5872940000     2.7764650000    -0.1380890000
    2      F       0.5331620000     2.2706910000     0.0376220000
    3      F      -1.1421360000     3.3252040000     0.7854080000
    4      F      -1.1093000000     0.9922690000     0.4568100000
    5      F      -1.1554550000     2.5432600000    -1.1881540000
 ----------------------------------------------------------------

    6    -435.4489247296      6.67E-09 Convergence criterion met
 Total energy in the final basis set = -435.4489247296
  Term symbol:  2 (-) A                                     R^2 =  5.18978e-14
  Excitation energy:                                             294.821230 eV
  Term symbol:  3 (-) A                                     R^2 =  6.64226e-14
  Excitation energy:                                             296.675417 eV
  Term symbol:  4 (-) A                                     R^2 =  9.69411e-14
  Excitation energy:                                             303.776722 eV
  Term symbol:  5 (-) A                                     R^2 =  1.00479e-13
  Excitation energy:                                             304.933983 eV
  Term symbol:  6 (-) A                                     R^2 =  1.08940e-13
  Excitation energy:                                             305.740399 eV
  Term symbol:  7 (-) A                                     R^2 =  9.46744e-14
  Excitation energy:                                             305.914989 eV
  Term symbol:  8 (-) A                                     R^2 =  1.09086e-13
  Excitation energy:                                             307.076496 eV
  Term symbol:  9 (-) A                                     R^2 =  5.32958e-14
  Excitation energy:                                             308.115294 eV
  Term symbol:  10 (-) A                                    R^2 =  1.13958e-13
  Excitation energy:                                             311.833878 eV
  Excited state 10 (A)                                             [converged]
  Term symbol:  11 (-) A                                    R^2 =  7.72836e-14
  Excitation energy:                                             313.403225 eV
  Excited state 11 (A)                                             [converged]
  Term symbol:  12 (-) A                                    R^2 =  2.06561e-13
  Excitation energy:                                             314.256646 eV
  Excited state 12 (A)                                             [converged]
  Term symbol:  13 (-) A                                    R^2 =  1.84994e-13
  Excitation energy:                                             314.521048 eV
  Excited state 13 (A)                                             [converged]
  Term symbol:  14 (-) A                                    R^2 =  1.90117e-13
  Excitation energy:                                             314.668497 eV
  Excited state 14 (A)                                             [converged]
  Term symbol:  15 (-) A                                    R^2 =  3.92145e-13
  Excitation energy:                                             314.933991 eV
  Excited state 15 (A)                                             [converged]
  Term symbol:  16 (-) A                                    R^2 =  1.16033e-11
  Excitation energy:                                             319.280065 eV
  Excited state 16 (A)                                             [converged]
  Term symbol:  17 (-) A                                    R^2 =  1.22503e-12
  Excitation energy:                                             319.770465 eV
  Excited state 17 (A)                                         [not converged]
  Term symbol:  18 (-) A                                    R^2 =  8.12119e-06
  Excitation energy:                                             331.397021 eV
  Excited state 18 (A)                                         [not converged]
  Term symbol:  19 (-) A                                    R^2 =  2.21233e-06
  Excitation energy:                                             331.538542 eV
  Excited state 19 (A)                                         [not converged]
  Term symbol:  20 (-) A                                    R^2 =  2.88060e-05
  Excitation energy:                                             331.624932 eV
  Excited state 20 (A)                                         [not converged]
  Term symbol:  21 (-) A                                    R^2 =  6.22039e-06
  Excitation energy:                                             331.781598 eV

                    Orbital Energies (a.u.)
 --------------------------------------------------------------

 Alpha MOs
 -- Occupied --
-26.490 -26.478 -26.453 -26.071 -11.684  -1.905  -1.815  -1.782
 -1.338  -1.069  -0.988  -0.977  -0.923  -0.816  -0.812  -0.804
 -0.782  -0.759  -0.434  -0.432  -0.425

 Beta MOs
 -- Occupied --
-26.490 -26.478 -26.453 -26.071 -11.684  -1.905  -1.815  -1.782
 -1.338  -1.069  -0.988  -0.977  -0.923  -0.816  -0.812  -0.804
 -0.782  -0.759  -0.434  -0.432  -0.425

          Ground-State Mulliken Net Atomic Charges

     Atom                 Charge (a.u.)    Spin (a.u.)
  --------------------------------------------------------
      1 C                     1.197085       0.000000
      2 F                    -0.166657       0.000000
      3 F                    -0.143147       0.000000
      4 F                    -0.740923       0.000000
      5 F                    -0.146357       0.000000
  --------------------------------------------------------
  Sum of atomic charges =     0.000000

                    Cartesian Multipole Moments
 -----------------------------------------------------------------
    Charge (ESU x 10^10)
                 0.0000
    Dipole Moment (Debye)
         X       1.6580      Y       6.1358      Z      -2.0145
       Tot       6.6675
    Quadrupole Moments (Debye-Ang)
        XX     -26.1743     XY      -1.8651     YY       0.9806
        XZ       1.8746     YZ      -3.1188     ZZ     -23.7361

 Total job time:  1899.44s(wall), 3124.94s(cpu)
        *  Thank you very much for using Q-Chem.  Have a nice day.  *
