 Q-Chem 4.3, Q-Chem, Inc., Pleasanton, CA (2015)
 Q-Chem 4.3.0 for Intel X86 Linux

User input:
--------------------------------------------------------------
$comment
XAS calculation for the 2b valence excited for water using cvs-adc(2)-x + 6-311+G* basis set
job 1 - determination of HF orbitals
$end

$molecule
0 1
6  -0.683266  2.374293  -0.003205
9  0.603144  2.348148  -7.5e-05
9  -1.134598  3.288253  0.785336
9  -1.138373  1.188295  0.4292
9  -1.13544  2.557335  -1.21225
$end

$rem
jobtype      sp
sym_ignore true
exchange     hf
basis        6-31G*
unrestricted true
$end

--------------------------------------------------------------

    8    -435.6433766054      3.55E-06 Convergence criterion met
 Total energy in the final basis set = -435.6433766054
 Total job time:  2.33s(wall), 9.37s(cpu)
        *  Thank you very much for using Q-Chem.  Have a nice day.  *
 Q-Chem 4.3, Q-Chem, Inc., Pleasanton, CA (2015)
 Q-Chem 4.3.0 for Intel X86 Linux

User input:
--------------------------------------------------------------

$comment
job3 - cvs-adc(2) calculation
$end

$molecule
read
$end

$rem
mem_total 3000
mem_static 1500
sym_ignore true
scf_guess read
method cvs-adc(2)
basis 6-31G*
ee_singlets 20
cc_rest_occ 5                  !only excitations from the lowest N orbitals
unrestricted  true
max_scf_cycles 200
$end
--------------------------------------------------------------

             Standard Nuclear Orientation (Angstroms)
    I     Atom           X                Y                Z
 ----------------------------------------------------------------
    1      C      -0.6832660000     2.3742930000    -0.0032050000
    2      F       0.6031440000     2.3481480000    -0.0000750000
    3      F      -1.1345980000     3.2882530000     0.7853360000
    4      F      -1.1383730000     1.1882950000     0.4292000000
    5      F      -1.1354400000     2.5573350000    -1.2122500000
 ----------------------------------------------------------------

    5    -435.6433765626      2.80E-09 Convergence criterion met
 Total energy in the final basis set = -435.6433765626
  Term symbol:  2 (-) A                                     R^2 =  2.96423e-11
  Excitation energy:                                             300.810787 eV
  Term symbol:  3 (-) A                                     R^2 =  1.19110e-11
  Excitation energy:                                             301.741497 eV
  Term symbol:  4 (-) A                                     R^2 =  4.02349e-11
  Excitation energy:                                             302.075544 eV
  Term symbol:  5 (-) A                                     R^2 =  1.06775e-11
  Excitation energy:                                             302.951533 eV
  Term symbol:  6 (-) A                                     R^2 =  2.84265e-11
  Excitation energy:                                             303.845733 eV
  Term symbol:  7 (-) A                                     R^2 =  3.70364e-11
  Excitation energy:                                             303.895034 eV
  Term symbol:  8 (-) A                                     R^2 =  3.74149e-11
  Excitation energy:                                             304.229527 eV
  Term symbol:  9 (-) A                                     R^2 =  7.18168e-11
  Excitation energy:                                             306.459864 eV
  Term symbol:  10 (-) A                                    R^2 =  5.18029e-10
  Excitation energy:                                             313.166176 eV
  Excited state 10 (A)                                             [converged]
  Term symbol:  11 (-) A                                    R^2 =  2.03520e-09
  Excitation energy:                                             313.661073 eV
  Excited state 11 (A)                                             [converged]
  Term symbol:  12 (-) A                                    R^2 =  1.82700e-09
  Excitation energy:                                             313.712513 eV
  Excited state 12 (A)                                             [converged]
  Term symbol:  13 (-) A                                    R^2 =  8.91957e-10
  Excitation energy:                                             313.818338 eV
  Excited state 13 (A)                                             [converged]
  Term symbol:  14 (-) A                                    R^2 =  1.30074e-09
  Excitation energy:                                             313.847234 eV
  Excited state 14 (A)                                             [converged]
  Term symbol:  15 (-) A                                    R^2 =  2.28343e-09
  Excitation energy:                                             314.060707 eV
  Excited state 15 (A)                                             [converged]
  Term symbol:  16 (-) A                                    R^2 =  2.23250e-10
  Excitation energy:                                             314.113181 eV
  Excited state 16 (A)                                             [converged]
  Term symbol:  17 (-) A                                    R^2 =  2.79551e-10
  Excitation energy:                                             314.347712 eV
  Excited state 17 (A)                                         [not converged]
  Term symbol:  18 (-) A                                    R^2 =  2.39937e-06
  Excitation energy:                                             330.172303 eV
  Excited state 18 (A)                                         [not converged]
  Term symbol:  19 (-) A                                    R^2 =  4.50012e-06
  Excitation energy:                                             330.180472 eV
  Excited state 19 (A)                                         [not converged]
  Term symbol:  20 (-) A                                    R^2 =  2.33572e-06
  Excitation energy:                                             330.196089 eV
  Excited state 20 (A)                                         [not converged]
  Term symbol:  21 (-) A                                    R^2 =  2.45705e-06
  Excitation energy:                                             330.204039 eV

                    Orbital Energies (a.u.)
 --------------------------------------------------------------

 Alpha MOs
 -- Occupied --
-26.384 -26.382 -26.376 -26.358 -11.606  -1.813  -1.692  -1.683
 -1.656  -1.005  -0.893  -0.891  -0.884  -0.759  -0.758  -0.711
 -0.707  -0.694  -0.679  -0.669  -0.667

 Beta MOs
 -- Occupied --
-26.384 -26.382 -26.376 -26.358 -11.606  -1.813  -1.692  -1.683
 -1.656  -1.005  -0.893  -0.891  -0.884  -0.759  -0.758  -0.711
 -0.707  -0.694  -0.679  -0.669  -0.667

          Ground-State Mulliken Net Atomic Charges

     Atom                 Charge (a.u.)    Spin (a.u.)
  --------------------------------------------------------
      1 C                     1.317563       0.000000
      2 F                    -0.310338       0.000000
      3 F                    -0.313116       0.000000
      4 F                    -0.365711       0.000000
      5 F                    -0.328399       0.000000
  --------------------------------------------------------
  Sum of atomic charges =     0.000000

                    Cartesian Multipole Moments
 -----------------------------------------------------------------
    Charge (ESU x 10^10)
                 0.0000
    Dipole Moment (Debye)
         X       0.1929      Y       0.3212      Z      -0.0357
       Tot       0.3764
    Quadrupole Moments (Debye-Ang)
        XX     -25.1122     XY       0.1310     YY     -23.5737
        XZ       0.0356     YZ       0.0340     ZZ     -24.9329

 Total job time:  2358.67s(wall), 3882.96s(cpu)
        *  Thank you very much for using Q-Chem.  Have a nice day.  *
