 Q-Chem 4.3, Q-Chem, Inc., Pleasanton, CA (2015)
 Q-Chem 4.3.0 for Intel X86 Linux

User input:
--------------------------------------------------------------
$comment
XAS calculation for the 2b valence excited for water using cvs-adc(2)-x + 6-311+G* basis set
job 1 - determination of HF orbitals
$end

$molecule
0 1
6  -0.491702  2.787799  -0.174146
9  0.627687  2.349541  -0.01399
9  -1.143272  3.188125  0.79383
9  -1.270508  1.039432  0.542868
9  -1.12565  2.532519  -1.213878
$end

$rem
jobtype      sp
sym_ignore true
exchange     hf
basis        6-31G*
unrestricted true
$end

--------------------------------------------------------------

    9    -435.4260681756      4.10E-06 Convergence criterion met
 Total energy in the final basis set = -435.4260681756
 Total job time:  2.57s(wall), 10.00s(cpu)
        *  Thank you very much for using Q-Chem.  Have a nice day.  *
 Q-Chem 4.3, Q-Chem, Inc., Pleasanton, CA (2015)
 Q-Chem 4.3.0 for Intel X86 Linux

User input:
--------------------------------------------------------------

$comment
job3 - cvs-adc(2) calculation
$end

$molecule
read
$end

$rem
mem_total 3000
mem_static 1500
sym_ignore true
scf_guess read
method cvs-adc(2)
basis 6-31G*
ee_singlets 20
cc_rest_occ 5                  !only excitations from the lowest N orbitals
unrestricted  true
max_scf_cycles 200
$end
--------------------------------------------------------------

             Standard Nuclear Orientation (Angstroms)
    I     Atom           X                Y                Z
 ----------------------------------------------------------------
    1      C      -0.4917020000     2.7877990000    -0.1741460000
    2      F       0.6276870000     2.3495410000    -0.0139900000
    3      F      -1.1432720000     3.1881250000     0.7938300000
    4      F      -1.2705080000     1.0394320000     0.5428680000
    5      F      -1.1256500000     2.5325190000    -1.2138780000
 ----------------------------------------------------------------

    6    -435.4260682606      2.87E-09 Convergence criterion met
 Total energy in the final basis set = -435.4260682606
  Term symbol:  2 (-) A                                     R^2 =  9.14862e-10
  Excitation energy:                                             294.296552 eV
  Term symbol:  3 (-) A                                     R^2 =  4.01237e-10
  Excitation energy:                                             296.134879 eV
  Term symbol:  4 (-) A                                     R^2 =  1.03249e-09
  Excitation energy:                                             303.727427 eV
  Term symbol:  5 (-) A                                     R^2 =  2.09611e-09
  Excitation energy:                                             304.751165 eV
  Term symbol:  6 (-) A                                     R^2 =  5.73609e-10
  Excitation energy:                                             305.554955 eV
  Term symbol:  7 (-) A                                     R^2 =  3.37428e-10
  Excitation energy:                                             305.753056 eV
  Term symbol:  8 (-) A                                     R^2 =  1.20354e-09
  Excitation energy:                                             306.865101 eV
  Term symbol:  9 (-) A                                     R^2 =  8.19112e-10
  Excitation energy:                                             307.699594 eV
  Term symbol:  10 (-) A                                    R^2 =  9.72968e-10
  Excitation energy:                                             311.933471 eV
  Excited state 10 (A)                                             [converged]
  Term symbol:  11 (-) A                                    R^2 =  4.13538e-09
  Excitation energy:                                             313.482072 eV
  Excited state 11 (A)                                             [converged]
  Term symbol:  12 (-) A                                    R^2 =  1.59175e-09
  Excitation energy:                                             314.320034 eV
  Excited state 12 (A)                                             [converged]
  Term symbol:  13 (-) A                                    R^2 =  4.88866e-09
  Excitation energy:                                             314.499238 eV
  Excited state 13 (A)                                             [converged]
  Term symbol:  14 (-) A                                    R^2 =  1.81870e-10
  Excitation energy:                                             314.750462 eV
  Excited state 14 (A)                                             [converged]
  Term symbol:  15 (-) A                                    R^2 =  5.88177e-10
  Excitation energy:                                             314.933400 eV
  Excited state 15 (A)                                             [converged]
  Term symbol:  16 (-) A                                    R^2 =  2.55762e-09
  Excitation energy:                                             319.867496 eV
  Excited state 16 (A)                                             [converged]
  Term symbol:  17 (-) A                                    R^2 =  4.49892e-09
  Excitation energy:                                             320.387734 eV
  Excited state 17 (A)                                         [not converged]
  Term symbol:  18 (-) A                                    R^2 =  1.87535e-01
  Excitation energy:                                             330.929260 eV
  Excited state 18 (A)                                             [converged]
  Term symbol:  19 (-) A                                    R^2 =  4.06494e-07
  Excitation energy:                                             331.580287 eV
  Excited state 19 (A)                                         [not converged]
  Term symbol:  20 (-) A                                    R^2 =  8.34493e-06
  Excitation energy:                                             331.722254 eV
  Excited state 20 (A)                                         [not converged]
  Term symbol:  21 (-) A                                    R^2 =  7.91302e-05
  Excitation energy:                                             332.019041 eV

                    Orbital Energies (a.u.)
 --------------------------------------------------------------

 Alpha MOs
 -- Occupied --
-26.502 -26.481 -26.474 -26.040 -11.700  -1.909  -1.815  -1.792
 -1.308  -1.076  -0.991  -0.984  -0.926  -0.821  -0.819  -0.805
 -0.790  -0.769  -0.406  -0.405  -0.400

 Beta MOs
 -- Occupied --
-26.502 -26.481 -26.474 -26.040 -11.700  -1.909  -1.815  -1.792
 -1.308  -1.076  -0.991  -0.984  -0.926  -0.821  -0.819  -0.805
 -0.790  -0.769  -0.406  -0.405  -0.400

          Ground-State Mulliken Net Atomic Charges

     Atom                 Charge (a.u.)    Spin (a.u.)
  --------------------------------------------------------
      1 C                     1.212157       0.000000
      2 F                    -0.130489       0.000000
      3 F                    -0.138249       0.000000
      4 F                    -0.779584       0.000000
      5 F                    -0.163835       0.000000
  --------------------------------------------------------
  Sum of atomic charges =     0.000000

                    Cartesian Multipole Moments
 -----------------------------------------------------------------
    Charge (ESU x 10^10)
                 0.0000
    Dipole Moment (Debye)
         X       2.9553      Y       6.3931      Z      -2.5470
       Tot       7.4895
    Quadrupole Moments (Debye-Ang)
        XX     -28.0160     XY       0.5014     YY       2.2073
        XZ       2.5940     YZ      -4.0347     ZZ     -24.0759

 Total job time:  2113.89s(wall), 3426.66s(cpu)
        *  Thank you very much for using Q-Chem.  Have a nice day.  *
