 Q-Chem 4.3, Q-Chem, Inc., Pleasanton, CA (2015)
 Q-Chem 4.3.0 for Intel X86 Linux

User input:
--------------------------------------------------------------
$comment
XAS calculation for the 2b valence excited for water using cvs-adc(2)-x + 6-311+G* basis set
job 1 - determination of HF orbitals
$end

$molecule
0 1
6  -0.289435  2.741519  -0.306786
9  0.835039  2.941246  -0.268119
9  -1.030486  3.19242  0.757889
9  -1.992768  0.239508  1.115613
9  -0.904307  2.859986  -1.410163
$end

$rem
jobtype      sp
sym_ignore true
exchange     hf
basis        6-31G*
unrestricted true
$end

--------------------------------------------------------------

   13    -435.2801413412      6.16E-06 Convergence criterion met
 Total energy in the final basis set = -435.2801413412

                    Orbital Energies (a.u.)
 --------------------------------------------------------------

 Alpha MOs
 -- Occupied --
-26.605 -26.541 -26.487 -26.004 -11.753  -2.019  -1.865  -1.764
 -1.242  -1.157  -1.052  -1.028  -1.005  -0.878  -0.862  -0.842
 -0.798  -0.792  -0.357  -0.357  -0.297

 Beta MOs
 -- Occupied --
-26.605 -26.541 -26.487 -26.004 -11.753  -2.019  -1.865  -1.764
 -1.242  -1.157  -1.052  -1.028  -1.005  -0.878  -0.862  -0.842
 -0.798  -0.792  -0.357  -0.357  -0.297

          Ground-State Mulliken Net Atomic Charges

     Atom                 Charge (a.u.)    Spin (a.u.)
  --------------------------------------------------------
      1 C                     1.141123       0.000000
      2 F                    -0.011746       0.000000
      3 F                    -0.226000       0.000000
      4 F                    -0.739042       0.000000
      5 F                    -0.164335       0.000000
  --------------------------------------------------------
  Sum of atomic charges =     0.000000

                    Cartesian Multipole Moments
 -----------------------------------------------------------------
    Charge (ESU x 10^10)
                 0.0000
    Dipole Moment (Debye)
         X       6.7507      Y       8.4883      Z      -5.2252
       Tot      12.0385
    Quadrupole Moments (Debye-Ang)
        XX     -36.6738     XY       1.3828     YY       2.2369
        XZ       7.9881     YZ      -4.7634     ZZ     -27.2212

 Total job time:  3.51s(wall), 13.56s(cpu)
        *  Thank you very much for using Q-Chem.  Have a nice day.  *
 Q-Chem 4.3, Q-Chem, Inc., Pleasanton, CA (2015)
 Q-Chem 4.3.0 for Intel X86 Linux

User input:
--------------------------------------------------------------

$comment
job3 - cvs-adc(2) calculation
$end

$molecule
read
$end

$rem
mem_total 3000
mem_static 1500
sym_ignore true
scf_guess read
method cvs-adc(2)
basis 6-31G*
ee_singlets 20
cc_rest_occ 5                  !only excitations from the lowest N orbitals
unrestricted  true
max_scf_cycles 200
$end
--------------------------------------------------------------

             Standard Nuclear Orientation (Angstroms)
    I     Atom           X                Y                Z
 ----------------------------------------------------------------
    1      C      -0.2894350000     2.7415190000    -0.3067860000
    2      F       0.8350390000     2.9412460000    -0.2681190000
    3      F      -1.0304860000     3.1924200000     0.7578890000
    4      F      -1.9927680000     0.2395080000     1.1156130000
    5      F      -0.9043070000     2.8599860000    -1.4101630000
 ----------------------------------------------------------------

   10    -435.2801419006      3.83E-09 Convergence criterion met
 Total energy in the final basis set = -435.2801419006
