 Q-Chem 4.3, Q-Chem, Inc., Pleasanton, CA (2015)
 Q-Chem 4.3.0 for Intel X86 Linux

User input:
--------------------------------------------------------------
$comment
XAS calculation for the 2b valence excited for water using cvs-adc(2)-x + 6-311+G* basis set
job 1 - determination of HF orbitals
$end

$molecule
0 1
6  -0.540219  2.784161  -0.212703
9  0.640437  2.507689  -0.07111
9  -1.074718  3.409181  0.715905
9  -1.411491  0.480655  0.735941
9  -1.050398  2.725806  -1.248646
$end

$rem
jobtype      sp
sym_ignore true
exchange     hf
basis        6-31G*
unrestricted true
$end

--------------------------------------------------------------

    9    -435.3959021169      7.16E-06 Convergence criterion met
 Total energy in the final basis set = -435.3959021169
 Total job time:  2.40s(wall), 10.04s(cpu)
        *  Thank you very much for using Q-Chem.  Have a nice day.  *
 Q-Chem 4.3, Q-Chem, Inc., Pleasanton, CA (2015)
 Q-Chem 4.3.0 for Intel X86 Linux

User input:
--------------------------------------------------------------

$comment
job3 - cvs-adc(2) calculation
$end

$molecule
read
$end

$rem
mem_total 3000
mem_static 1500
sym_ignore true
scf_guess read
method cvs-adc(2)
basis 6-31G*
ee_singlets 20
cc_rest_occ 5                  !only excitations from the lowest N orbitals
unrestricted  true
max_scf_cycles 200
$end
--------------------------------------------------------------

             Standard Nuclear Orientation (Angstroms)
    I     Atom           X                Y                Z
 ----------------------------------------------------------------
    1      C      -0.5402190000     2.7841610000    -0.2127030000
    2      F       0.6404370000     2.5076890000    -0.0711100000
    3      F      -1.0747180000     3.4091810000     0.7159050000
    4      F      -1.4114910000     0.4806550000     0.7359410000
    5      F      -1.0503980000     2.7258060000    -1.2486460000
 ----------------------------------------------------------------

    7    -435.3959022926      5.79E-09 Convergence criterion met
 Total energy in the final basis set = -435.3959022926
  Term symbol:  2 (-) A                                     R^2 =  1.06641e-13
  Excitation energy:                                             295.019540 eV
  Term symbol:  3 (-) A                                     R^2 =  1.25690e-13
  Excitation energy:                                             297.006133 eV
  Term symbol:  4 (-) A                                     R^2 =  4.73227e-14
  Excitation energy:                                             303.492059 eV
  Term symbol:  5 (-) A                                     R^2 =  1.95996e-14
  Excitation energy:                                             305.111729 eV
  Term symbol:  6 (-) A                                     R^2 =  2.68137e-14
  Excitation energy:                                             305.119135 eV
  Term symbol:  7 (-) A                                     R^2 =  3.79415e-14
  Excitation energy:                                             307.241714 eV
  Term symbol:  8 (-) A                                     R^2 =  3.48374e-14
  Excitation energy:                                             307.315258 eV
  Term symbol:  9 (-) A                                     R^2 =  8.11641e-14
  Excitation energy:                                             309.267058 eV
  Term symbol:  10 (-) A                                    R^2 =  7.74318e-14
  Excitation energy:                                             312.800390 eV
  Excited state 10 (A)                                             [converged]
  Term symbol:  11 (-) A                                    R^2 =  7.24437e-14
  Excitation energy:                                             314.187301 eV
  Excited state 11 (A)                                             [converged]
  Term symbol:  12 (-) A                                    R^2 =  9.85641e-14
  Excitation energy:                                             314.723473 eV
  Excited state 12 (A)                                             [converged]
  Term symbol:  13 (-) A                                    R^2 =  1.17628e-13
  Excitation energy:                                             314.983402 eV
  Excited state 13 (A)                                             [converged]
  Term symbol:  14 (-) A                                    R^2 =  1.55953e-13
  Excitation energy:                                             315.062111 eV
  Excited state 14 (A)                                             [converged]
  Term symbol:  15 (-) A                                    R^2 =  1.79135e-13
  Excitation energy:                                             315.493055 eV
  Excited state 15 (A)                                             [converged]
  Term symbol:  16 (-) A                                    R^2 =  4.27530e-13
  Excitation energy:                                             316.862158 eV
  Excited state 16 (A)                                             [converged]
  Term symbol:  17 (-) A                                    R^2 =  1.47443e-12
  Excitation energy:                                             317.898200 eV
  Excited state 17 (A)                                             [converged]
  Term symbol:  18 (-) A                                    R^2 =  1.31819e-07
  Excitation energy:                                             331.230082 eV
  Excited state 18 (A)                                             [converged]
  Term symbol:  19 (-) A                                    R^2 =  9.81915e-09
  Excitation energy:                                             331.246488 eV
  Excited state 19 (A)                                         [not converged]
  Term symbol:  20 (-) A                                    R^2 =  6.43929e-05
  Excitation energy:                                             331.258467 eV
  Excited state 20 (A)                                             [converged]
  Term symbol:  21 (-) A                                    R^2 =  3.23061e-07
  Excitation energy:                                             331.415090 eV

                    Orbital Energies (a.u.)
 --------------------------------------------------------------

 Alpha MOs
 -- Occupied --
-26.562 -26.528 -26.517 -26.014 -11.737  -1.990  -1.880  -1.837
 -1.257  -1.130  -1.050  -1.044  -0.993  -0.875  -0.871  -0.854
 -0.830  -0.813  -0.369  -0.369  -0.346

 Beta MOs
 -- Occupied --
-26.562 -26.528 -26.517 -26.014 -11.737  -1.990  -1.880  -1.837
 -1.257  -1.130  -1.050  -1.044  -0.993  -0.875  -0.871  -0.854
 -0.830  -0.813  -0.369  -0.369  -0.346

          Ground-State Mulliken Net Atomic Charges

     Atom                 Charge (a.u.)    Spin (a.u.)
  --------------------------------------------------------
      1 C                     1.093077       0.000000
      2 F                    -0.126670       0.000000
      3 F                    -0.149104       0.000000
      4 F                    -0.778988       0.000000
      5 F                    -0.038316       0.000000
  --------------------------------------------------------
  Sum of atomic charges =     0.000000

                    Cartesian Multipole Moments
 -----------------------------------------------------------------
    Charge (ESU x 10^10)
                 0.0000
    Dipole Moment (Debye)
         X       3.1299      Y       8.4905      Z      -3.8877
       Tot       9.8488
    Quadrupole Moments (Debye-Ang)
        XX     -28.9890     XY      -2.9986     YY       5.3977
        XZ       4.5580     YZ      -4.8613     ZZ     -24.2747

 Total job time:  2108.40s(wall), 3411.98s(cpu)
        *  Thank you very much for using Q-Chem.  Have a nice day.  *
