 Q-Chem 4.3, Q-Chem, Inc., Pleasanton, CA (2015)
 Q-Chem 4.3.0 for Intel X86 Linux

User input:
--------------------------------------------------------------
$comment
XAS calculation for the 2b valence excited for water using cvs-adc(2)-x + 6-311+G* basis set
job 1 - determination of HF orbitals
$end

$molecule
0 1
6  -0.687311  2.366293  -0.007913
9  0.59324  2.350504  -0.000544
9  -1.134286  3.288591  0.786465
9  -1.137634  1.194939  0.427366
9  -1.132341  2.557003  -1.206279
$end

$rem
jobtype      sp
sym_ignore true
exchange     hf
basis        6-31G*
unrestricted true
$end

--------------------------------------------------------------

    8    -435.6440469264      3.57E-06 Convergence criterion met
 Total energy in the final basis set = -435.6440469264

                    Orbital Energies (a.u.)
 --------------------------------------------------------------

 Alpha MOs
 -- Occupied --
-26.382 -26.377 -26.375 -26.361 -11.604  -1.816  -1.691  -1.684
 -1.663  -1.006  -0.894  -0.892  -0.887  -0.760  -0.760  -0.710
 -0.707  -0.697  -0.677  -0.670  -0.668

 Beta MOs
 -- Occupied --
-26.382 -26.377 -26.375 -26.361 -11.604  -1.816  -1.691  -1.684
 -1.663  -1.006  -0.894  -0.892  -0.887  -0.760  -0.760  -0.710
 -0.707  -0.697  -0.677  -0.670  -0.668

          Ground-State Mulliken Net Atomic Charges

     Atom                 Charge (a.u.)    Spin (a.u.)
  --------------------------------------------------------
      1 C                     1.306621       0.000000
      2 F                    -0.307085       0.000000
      3 F                    -0.324144       0.000000
      4 F                    -0.355817       0.000000
      5 F                    -0.319575       0.000000
  --------------------------------------------------------
  Sum of atomic charges =     0.000000

                    Cartesian Multipole Moments
 -----------------------------------------------------------------
    Charge (ESU x 10^10)
                 0.0000
    Dipole Moment (Debye)
         X       0.1758      Y       0.2068      Z      -0.1061
       Tot       0.2914
    Quadrupole Moments (Debye-Ang)
        XX     -25.0585     XY       0.2025     YY     -24.0856
        XZ       0.1102     YZ      -0.1931     ZZ     -24.9004

 Total job time:  2.14s(wall), 10.99s(cpu)
        *  Thank you very much for using Q-Chem.  Have a nice day.  *
 Q-Chem 4.3, Q-Chem, Inc., Pleasanton, CA (2015)
 Q-Chem 4.3.0 for Intel X86 Linux

User input:
--------------------------------------------------------------

$comment
job3 - cvs-adc(2) calculation
$end

$molecule
read
$end

$rem
mem_total 3000
mem_static 1500
sym_ignore true
scf_guess read
method cvs-adc(2)
basis 6-31G*
ee_singlets 20
cc_rest_occ 5                  !only excitations from the lowest N orbitals
unrestricted  true
max_scf_cycles 200
$end
--------------------------------------------------------------

             Standard Nuclear Orientation (Angstroms)
    I     Atom           X                Y                Z
 ----------------------------------------------------------------
    1      C      -0.6873110000     2.3662930000    -0.0079130000
    2      F       0.5932400000     2.3505040000    -0.0005440000
    3      F      -1.1342860000     3.2885910000     0.7864650000
    4      F      -1.1376340000     1.1949390000     0.4273660000
    5      F      -1.1323410000     2.5570030000    -1.2062790000
 ----------------------------------------------------------------

    5    -435.6440469218      2.41E-09 Convergence criterion met
 Total energy in the final basis set = -435.6440469218
